 Entering Gaussian System, Link 0=g16
 Input=CONF_01_ECD.com
 Output=CONF_01_ECD.log
 Initial command:
 /public/gkxiao/software/g16/l1.exe "/home/gkxiao/tmp/Gau-562646.inp" -scrdir="/home/gkxiao/tmp/"
 Default is to use a total of  24 processors:
                               24 via shared-memory
                                1 via Linda
 Entering Link 1 = /public/gkxiao/software/g16/l1.exe PID=    562648.
  
 Copyright (c) 1988,1990,1992,1993,1995,1998,2003,2009,2016,
            Gaussian, Inc.  All Rights Reserved.
  
 This is part of the Gaussian(R) 16 program.  It is based on
 the Gaussian(R) 09 system (copyright 2009, Gaussian, Inc.),
 the Gaussian(R) 03 system (copyright 2003, Gaussian, Inc.),
 the Gaussian(R) 98 system (copyright 1998, Gaussian, Inc.),
 the Gaussian(R) 94 system (copyright 1995, Gaussian, Inc.),
 the Gaussian 92(TM) system (copyright 1992, Gaussian, Inc.),
 the Gaussian 90(TM) system (copyright 1990, Gaussian, Inc.),
 the Gaussian 88(TM) system (copyright 1988, Gaussian, Inc.),
 the Gaussian 86(TM) system (copyright 1986, Carnegie Mellon
 University), and the Gaussian 82(TM) system (copyright 1983,
 Carnegie Mellon University). Gaussian is a federally registered
 trademark of Gaussian, Inc.
  
 This software contains proprietary and confidential information,
 including trade secrets, belonging to Gaussian, Inc.
  
 This software is provided under written license and may be
 used, copied, transmitted, or stored only in accord with that
 written license.
  
 The following legend is applicable only to US Government
 contracts under FAR:
  
                    RESTRICTED RIGHTS LEGEND
  
 Use, reproduction and disclosure by the US Government is
 subject to restrictions as set forth in subparagraphs (a)
 and (c) of the Commercial Computer Software - Restricted
 Rights clause in FAR 52.227-19.
  
 Gaussian, Inc.
 340 Quinnipiac St., Bldg. 40, Wallingford CT 06492
  
  
 ---------------------------------------------------------------
 Warning -- This program may not be used in any manner that
 competes with the business of Gaussian, Inc. or will provide
 assistance to any competitor of Gaussian, Inc.  The licensee
 of this program is prohibited from giving any competitor of
 Gaussian, Inc. access to this program.  By using this program,
 the user acknowledges that Gaussian, Inc. is engaged in the
 business of creating and licensing software in the field of
 computational chemistry and represents and warrants to the
 licensee that it is not a competitor of Gaussian, Inc. and that
 it will not use this program in any manner prohibited above.
 ---------------------------------------------------------------
  

 Cite this work as:
 Gaussian 16, Revision A.03,
 M. J. Frisch, G. W. Trucks, H. B. Schlegel, G. E. Scuseria, 
 M. A. Robb, J. R. Cheeseman, G. Scalmani, V. Barone, 
 G. A. Petersson, H. Nakatsuji, X. Li, M. Caricato, A. V. Marenich, 
 J. Bloino, B. G. Janesko, R. Gomperts, B. Mennucci, H. P. Hratchian, 
 J. V. Ortiz, A. F. Izmaylov, J. L. Sonnenberg, D. Williams-Young, 
 F. Ding, F. Lipparini, F. Egidi, J. Goings, B. Peng, A. Petrone, 
 T. Henderson, D. Ranasinghe, V. G. Zakrzewski, J. Gao, N. Rega, 
 G. Zheng, W. Liang, M. Hada, M. Ehara, K. Toyota, R. Fukuda, 
 J. Hasegawa, M. Ishida, T. Nakajima, Y. Honda, O. Kitao, H. Nakai, 
 T. Vreven, K. Throssell, J. A. Montgomery, Jr., J. E. Peralta, 
 F. Ogliaro, M. J. Bearpark, J. J. Heyd, E. N. Brothers, K. N. Kudin, 
 V. N. Staroverov, T. A. Keith, R. Kobayashi, J. Normand, 
 K. Raghavachari, A. P. Rendell, J. C. Burant, S. S. Iyengar, 
 J. Tomasi, M. Cossi, J. M. Millam, M. Klene, C. Adamo, R. Cammi, 
 J. W. Ochterski, R. L. Martin, K. Morokuma, O. Farkas, 
 J. B. Foresman, and D. J. Fox, Gaussian, Inc., Wallingford CT, 2016.
 
 ******************************************
 Gaussian 16:  ES64L-G16RevA.03 25-Dec-2016
                 9-Oct-2022 
 ******************************************
 %oldchk=CONF_01.chk
 %chk=CONF_01_ECD.chk
 Copying data from "CONF_01.chk" to current chk file "CONF_01_ECD.chk"
 IOpt=  2 FromEx=T IUOpen= 4 IOptOp= 5 NList=   0 IFRang= 0 IUIn= 4 IUOut= 2.
 ----------------------------------------------------------------------
 #P td=(nstates=100) APFD/6-311+g(2d,p) guess=read geom=allcheck scrf=c
 heck
 ----------------------------------------------------------------------
 1/29=7,38=1,40=1,172=1/1;
 2/12=2,40=1/2;
 3/5=4,6=6,7=112,11=9,14=-4,25=1,30=1,70=2,74=-44,116=-2/1,2,3,8;
 4/5=1/1;
 5/5=2,38=6/2;
 8/6=1,10=2,108=100/1;
 9/41=100,42=1,70=2/14;
 6/7=2,8=2,9=2,10=2/1;
 99/5=1,9=1/99;
 Leave Link    1 at Sun Oct  9 17:17:36 2022, MaxMem=  3221225472 cpu:               2.0 elap:               0.1
 (Enter /public/gkxiao/software/g16/l101.exe)
 Structure from the checkpoint file:  "CONF_01_ECD.chk"
 -------------------------------------------------------------------
 Structure: CONF_1 Calculation: Opt Freq at APFD/6-311+g(2d,p) level
 -------------------------------------------------------------------
 Charge =  0 Multiplicity = 1
 Redundant internal coordinates found in file.  (old form).
 C,0,-0.9196407215,3.054591346,0.538938893
 C,0,-1.698811226,4.0090437767,1.1349839174
 N,0,-1.5207718657,5.1482063241,0.3939687675
 C,0,-0.658798478,4.852010705,-0.6023210598
 N,0,-0.2736721703,3.598073207,-0.5482429956
 C,0,-0.7345425767,1.6177385865,0.9086704152
 C,0,-1.2799525716,1.3121472022,2.3061837268
 C,0,-1.3519057418,0.6651137906,-0.105080409
 C,0,-2.4844450863,1.0678748258,-0.8126357131
 C,0,-3.1113073509,0.2158955444,-1.706763348
 C,0,-2.6016145354,-1.0595249736,-1.9067122498
 C,0,-1.4754147911,-1.4911895168,-1.2131582223
 C,0,-0.8443283165,-0.6291443834,-0.2974676179
 C,0,0.353472058,-1.1457887695,0.4516165374
 C,0,-0.9478747209,-2.8778881111,-1.4467888073
 H,0,0.347452964,1.4492829595,0.9175810365
 H,0,-2.3458549745,3.9838776273,1.9959336334
 H,0,-1.9467259603,6.0454125354,0.5662105593
 H,0,-0.3432469164,5.5830452525,-1.3318237214
 H,0,-1.0939751588,0.2697681026,2.5729488711
 H,0,-2.3613635905,1.4718725512,2.3394868443
 H,0,-0.8141187494,1.9503300023,3.0618117595
 H,0,-2.8700139093,2.0706920285,-0.6582564163
 H,0,-3.9913927189,0.5453720064,-2.2506210248
 H,0,-3.0824781555,-1.733025127,-2.6105880203
 H,0,1.1383620538,-1.4726555994,-0.2375719456
 H,0,0.7910439656,-0.409640914,1.1222546004
 H,0,0.0874760301,-2.0188874482,1.0563810195
 H,0,0.0829569575,-2.8610192169,-1.8152555017
 H,0,-0.9390383096,-3.4673671276,-0.5242794731
 H,0,-1.5566754331,-3.4102171863,-2.1793040553
 Recover connectivity data from disk.
 ITRead=  0  0  0  0  0  0  0  0  0  0  0  0  0  0  0  0  0  0  0  0
 ITRead=  0  0  0  0  0  0  0  0  0  0  0
 MicOpt= -1 -1 -1 -1 -1 -1 -1 -1 -1 -1 -1 -1 -1 -1 -1 -1 -1 -1 -1 -1
 MicOpt= -1 -1 -1 -1 -1 -1 -1 -1 -1 -1 -1
                           ----------------------------
                           !    Current Parameters    !
                           ! (Angstroms and Degrees)  !
 --------------------------                            --------------------------
 ! Name  Definition              Value                                          !
 --------------------------------------------------------------------------------
 ! R1    R(1,2)                  1.3687                                         !
 ! R2    R(1,5)                  1.3764                                         !
 ! R3    R(1,6)                  1.4952                                         !
 ! R4    R(2,3)                  1.3706                                         !
 ! R5    R(2,17)                 1.0773                                         !
 ! R6    R(3,4)                  1.3503                                         !
 ! R7    R(3,18)                 1.008                                          !
 ! R8    R(4,5)                  1.3129                                         !
 ! R9    R(4,19)                 1.0799                                         !
 ! R10   R(6,7)                  1.531                                          !
 ! R11   R(6,8)                  1.5219                                         !
 ! R12   R(6,16)                 1.0951                                         !
 ! R13   R(7,20)                 1.0919                                         !
 ! R14   R(7,21)                 1.0937                                         !
 ! R15   R(7,22)                 1.0933                                         !
 ! R16   R(8,9)                  1.3948                                         !
 ! R17   R(8,13)                 1.4035                                         !
 ! R18   R(9,10)                 1.385                                          !
 ! R19   R(9,23)                 1.0854                                         !
 ! R20   R(10,11)                1.388                                          !
 ! R21   R(10,24)                1.0858                                         !
 ! R22   R(11,12)                1.3913                                         !
 ! R23   R(11,25)                1.0864                                         !
 ! R24   R(12,13)                1.4071                                         !
 ! R25   R(12,15)                1.5019                                         !
 ! R26   R(13,14)                1.5043                                         !
 ! R27   R(14,26)                1.0945                                         !
 ! R28   R(14,27)                1.0877                                         !
 ! R29   R(14,28)                1.0949                                         !
 ! R30   R(15,29)                1.0948                                         !
 ! R31   R(15,30)                1.0948                                         !
 ! R32   R(15,31)                1.0911                                         !
 ! A1    A(2,1,5)              109.6202                                         !
 ! A2    A(2,1,6)              129.2667                                         !
 ! A3    A(5,1,6)              121.1087                                         !
 ! A4    A(1,2,3)              105.6762                                         !
 ! A5    A(1,2,17)             132.3504                                         !
 ! A6    A(3,2,17)             121.9734                                         !
 ! A7    A(2,3,4)              107.4286                                         !
 ! A8    A(2,3,18)             126.3356                                         !
 ! A9    A(4,3,18)             126.2327                                         !
 ! A10   A(3,4,5)              111.4924                                         !
 ! A11   A(3,4,19)             122.4434                                         !
 ! A12   A(5,4,19)             126.0632                                         !
 ! A13   A(1,5,4)              105.7826                                         !
 ! A14   A(1,6,7)              111.9283                                         !
 ! A15   A(1,6,8)              112.7421                                         !
 ! A16   A(1,6,16)             105.7931                                         !
 ! A17   A(7,6,8)              109.79                                           !
 ! A18   A(7,6,16)             108.2922                                         !
 ! A19   A(8,6,16)             108.0551                                         !
 ! A20   A(6,7,20)             110.6636                                         !
 ! A21   A(6,7,21)             110.5428                                         !
 ! A22   A(6,7,22)             111.2597                                         !
 ! A23   A(20,7,21)            107.4814                                         !
 ! A24   A(20,7,22)            108.4103                                         !
 ! A25   A(21,7,22)            108.3621                                         !
 ! A26   A(6,8,9)              119.1119                                         !
 ! A27   A(6,8,13)             121.4543                                         !
 ! A28   A(9,8,13)             119.367                                          !
 ! A29   A(8,9,10)             121.1549                                         !
 ! A30   A(8,9,23)             118.8856                                         !
 ! A31   A(10,9,23)            119.9582                                         !
 ! A32   A(9,10,11)            119.4755                                         !
 ! A33   A(9,10,24)            120.236                                          !
 ! A34   A(11,10,24)           120.2878                                         !
 ! A35   A(10,11,12)           120.7001                                         !
 ! A36   A(10,11,25)           120.0304                                         !
 ! A37   A(12,11,25)           119.2695                                         !
 ! A38   A(11,12,13)           119.8267                                         !
 ! A39   A(11,12,15)           119.5532                                         !
 ! A40   A(13,12,15)           120.6197                                         !
 ! A41   A(8,13,12)            119.4703                                         !
 ! A42   A(8,13,14)            122.4419                                         !
 ! A43   A(12,13,14)           118.0855                                         !
 ! A44   A(13,14,26)           111.1026                                         !
 ! A45   A(13,14,27)           113.2606                                         !
 ! A46   A(13,14,28)           110.8235                                         !
 ! A47   A(26,14,27)           107.57                                           !
 ! A48   A(26,14,28)           106.4921                                         !
 ! A49   A(27,14,28)           107.2692                                         !
 ! A50   A(12,15,29)           111.6436                                         !
 ! A51   A(12,15,30)           111.6469                                         !
 ! A52   A(12,15,31)           111.0318                                         !
 ! A53   A(29,15,30)           106.516                                          !
 ! A54   A(29,15,31)           107.8732                                         !
 ! A55   A(30,15,31)           107.9087                                         !
 ! D1    D(5,1,2,3)              0.0457                                         !
 ! D2    D(5,1,2,17)          -179.8884                                         !
 ! D3    D(6,1,2,3)           -179.1907                                         !
 ! D4    D(6,1,2,17)             0.8752                                         !
 ! D5    D(2,1,5,4)             -0.0312                                         !
 ! D6    D(6,1,5,4)            179.2783                                         !
 ! D7    D(2,1,6,7)            -13.7904                                         !
 ! D8    D(2,1,6,8)            110.5767                                         !
 ! D9    D(2,1,6,16)          -131.5316                                         !
 ! D10   D(5,1,6,7)            167.0497                                         !
 ! D11   D(5,1,6,8)            -68.5832                                         !
 ! D12   D(5,1,6,16)            49.3085                                         !
 ! D13   D(1,2,3,4)             -0.0424                                         !
 ! D14   D(1,2,3,18)          -179.4341                                         !
 ! D15   D(17,2,3,4)           179.9002                                         !
 ! D16   D(17,2,3,18)            0.5085                                         !
 ! D17   D(2,3,4,5)              0.0249                                         !
 ! D18   D(2,3,4,19)          -179.6486                                         !
 ! D19   D(18,3,4,5)           179.4174                                         !
 ! D20   D(18,3,4,19)           -0.2561                                         !
 ! D21   D(3,4,5,1)              0.0036                                         !
 ! D22   D(19,4,5,1)           179.6628                                         !
 ! D23   D(1,6,7,20)          -177.4443                                         !
 ! D24   D(1,6,7,21)            63.597                                          !
 ! D25   D(1,6,7,22)           -56.8526                                         !
 ! D26   D(8,6,7,20)            56.5585                                         !
 ! D27   D(8,6,7,21)           -62.4002                                         !
 ! D28   D(8,6,7,22)           177.1502                                         !
 ! D29   D(16,6,7,20)          -61.2075                                         !
 ! D30   D(16,6,7,21)          179.8338                                         !
 ! D31   D(16,6,7,22)           59.3842                                         !
 ! D32   D(1,6,8,9)            -30.8786                                         !
 ! D33   D(1,6,8,13)           152.1116                                         !
 ! D34   D(7,6,8,9)             94.6544                                         !
 ! D35   D(7,6,8,13)           -82.3555                                         !
 ! D36   D(16,6,8,9)          -147.4322                                         !
 ! D37   D(16,6,8,13)           35.5579                                         !
 ! D38   D(6,8,9,10)          -177.458                                          !
 ! D39   D(6,8,9,23)             2.9607                                         !
 ! D40   D(13,8,9,10)           -0.3848                                         !
 ! D41   D(13,8,9,23)         -179.9662                                         !
 ! D42   D(6,8,13,12)          177.8461                                         !
 ! D43   D(6,8,13,14)           -1.588                                          !
 ! D44   D(9,8,13,12)            0.8437                                         !
 ! D45   D(9,8,13,14)         -178.5904                                         !
 ! D46   D(8,9,10,11)           -0.2404                                         !
 ! D47   D(8,9,10,24)         -179.922                                          !
 ! D48   D(23,9,10,11)         179.3365                                         !
 ! D49   D(23,9,10,24)          -0.3451                                         !
 ! D50   D(9,10,11,12)           0.4022                                         !
 ! D51   D(9,10,11,25)        -179.6139                                         !
 ! D52   D(24,10,11,12)       -179.9164                                         !
 ! D53   D(24,10,11,25)          0.0675                                         !
 ! D54   D(10,11,12,13)          0.0636                                         !
 ! D55   D(10,11,12,15)        179.8389                                         !
 ! D56   D(25,11,12,13)       -179.9205                                         !
 ! D57   D(25,11,12,15)         -0.1451                                         !
 ! D58   D(11,12,13,8)          -0.6884                                         !
 ! D59   D(11,12,13,14)        178.7703                                         !
 ! D60   D(15,12,13,8)         179.5387                                         !
 ! D61   D(15,12,13,14)         -1.0026                                         !
 ! D62   D(11,12,15,29)        120.2779                                         !
 ! D63   D(11,12,15,30)       -120.6089                                         !
 ! D64   D(11,12,15,31)         -0.1418                                         !
 ! D65   D(13,12,15,29)        -59.9485                                         !
 ! D66   D(13,12,15,30)         59.1646                                         !
 ! D67   D(13,12,15,31)        179.6317                                         !
 ! D68   D(8,13,14,26)        -122.9246                                         !
 ! D69   D(8,13,14,27)          -1.7206                                         !
 ! D70   D(8,13,14,28)         118.8896                                         !
 ! D71   D(12,13,14,26)         57.6338                                         !
 ! D72   D(12,13,14,27)        178.8378                                         !
 ! D73   D(12,13,14,28)        -60.552                                          !
 --------------------------------------------------------------------------------
 NAtoms=     31 NQM=       31 NQMF=       0 NMMI=      0 NMMIF=      0
                NMic=       0 NMicF=      0.
                    Isotopes and Nuclear Properties:
 (Nuclear quadrupole moments (NQMom) in fm**2, nuclear magnetic moments (NMagM)
  in nuclear magnetons)

  Atom         1           2           3           4           5           6           7           8           9          10
 IAtWgt=          12          12          14          12          14          12          12          12          12          12
 AtmWgt=  12.0000000  12.0000000  14.0030740  12.0000000  14.0030740  12.0000000  12.0000000  12.0000000  12.0000000  12.0000000
 NucSpn=           0           0           2           0           2           0           0           0           0           0
 AtZEff=   3.6000000   3.6000000   4.5500000   3.6000000   4.5500000   3.6000000   3.6000000   3.6000000   3.6000000   3.6000000
 NQMom=    0.0000000   0.0000000   2.0440000   0.0000000   2.0440000   0.0000000   0.0000000   0.0000000   0.0000000   0.0000000
 NMagM=    0.0000000   0.0000000   0.4037610   0.0000000   0.4037610   0.0000000   0.0000000   0.0000000   0.0000000   0.0000000
 AtZNuc=   6.0000000   6.0000000   7.0000000   6.0000000   7.0000000   6.0000000   6.0000000   6.0000000   6.0000000   6.0000000

  Atom        11          12          13          14          15          16          17          18          19          20
 IAtWgt=          12          12          12          12          12           1           1           1           1           1
 AtmWgt=  12.0000000  12.0000000  12.0000000  12.0000000  12.0000000   1.0078250   1.0078250   1.0078250   1.0078250   1.0078250
 NucSpn=           0           0           0           0           0           1           1           1           1           1
 AtZEff=   3.6000000   3.6000000   3.6000000   3.6000000   3.6000000   1.0000000   1.0000000   1.0000000   1.0000000   1.0000000
 NQMom=    0.0000000   0.0000000   0.0000000   0.0000000   0.0000000   0.0000000   0.0000000   0.0000000   0.0000000   0.0000000
 NMagM=    0.0000000   0.0000000   0.0000000   0.0000000   0.0000000   2.7928460   2.7928460   2.7928460   2.7928460   2.7928460
 AtZNuc=   6.0000000   6.0000000   6.0000000   6.0000000   6.0000000   1.0000000   1.0000000   1.0000000   1.0000000   1.0000000

  Atom        21          22          23          24          25          26          27          28          29          30
 IAtWgt=           1           1           1           1           1           1           1           1           1           1
 AtmWgt=   1.0078250   1.0078250   1.0078250   1.0078250   1.0078250   1.0078250   1.0078250   1.0078250   1.0078250   1.0078250
 NucSpn=           1           1           1           1           1           1           1           1           1           1
 AtZEff=   1.0000000   1.0000000   1.0000000   1.0000000   1.0000000   1.0000000   1.0000000   1.0000000   1.0000000   1.0000000
 NQMom=    0.0000000   0.0000000   0.0000000   0.0000000   0.0000000   0.0000000   0.0000000   0.0000000   0.0000000   0.0000000
 NMagM=    2.7928460   2.7928460   2.7928460   2.7928460   2.7928460   2.7928460   2.7928460   2.7928460   2.7928460   2.7928460
 AtZNuc=   1.0000000   1.0000000   1.0000000   1.0000000   1.0000000   1.0000000   1.0000000   1.0000000   1.0000000   1.0000000

  Atom        31
 IAtWgt=           1
 AtmWgt=   1.0078250
 NucSpn=           1
 AtZEff=   1.0000000
 NQMom=    0.0000000
 NMagM=    2.7928460
 AtZNuc=   1.0000000
 Leave Link  101 at Sun Oct  9 17:17:37 2022, MaxMem=  3221225472 cpu:              17.5 elap:               0.7
 (Enter /public/gkxiao/software/g16/l202.exe)
                          Input orientation:                          
 ---------------------------------------------------------------------
 Center     Atomic      Atomic             Coordinates (Angstroms)
 Number     Number       Type             X           Y           Z
 ---------------------------------------------------------------------
      1          6           0       -0.919641    3.054591    0.538939
      2          6           0       -1.698811    4.009044    1.134984
      3          7           0       -1.520772    5.148206    0.393969
      4          6           0       -0.658798    4.852011   -0.602321
      5          7           0       -0.273672    3.598073   -0.548243
      6          6           0       -0.734543    1.617739    0.908670
      7          6           0       -1.279953    1.312147    2.306184
      8          6           0       -1.351906    0.665114   -0.105080
      9          6           0       -2.484445    1.067875   -0.812636
     10          6           0       -3.111307    0.215896   -1.706763
     11          6           0       -2.601615   -1.059525   -1.906712
     12          6           0       -1.475415   -1.491190   -1.213158
     13          6           0       -0.844328   -0.629144   -0.297468
     14          6           0        0.353472   -1.145789    0.451617
     15          6           0       -0.947875   -2.877888   -1.446789
     16          1           0        0.347453    1.449283    0.917581
     17          1           0       -2.345855    3.983878    1.995934
     18          1           0       -1.946726    6.045413    0.566211
     19          1           0       -0.343247    5.583045   -1.331824
     20          1           0       -1.093975    0.269768    2.572949
     21          1           0       -2.361364    1.471873    2.339487
     22          1           0       -0.814119    1.950330    3.061812
     23          1           0       -2.870014    2.070692   -0.658256
     24          1           0       -3.991393    0.545372   -2.250621
     25          1           0       -3.082478   -1.733025   -2.610588
     26          1           0        1.138362   -1.472656   -0.237572
     27          1           0        0.791044   -0.409641    1.122255
     28          1           0        0.087476   -2.018887    1.056381
     29          1           0        0.082957   -2.861019   -1.815256
     30          1           0       -0.939038   -3.467367   -0.524279
     31          1           0       -1.556675   -3.410217   -2.179304
 ---------------------------------------------------------------------
                    Distance matrix (angstroms):
                    1          2          3          4          5
     1  C    0.000000
     2  C    1.368706   0.000000
     3  N    2.183025   1.370581   0.000000
     4  C    2.145048   2.193273   1.350305   0.000000
     5  N    1.376449   2.243473   2.201348   1.312862   0.000000
     6  C    1.495162   2.588315   3.653392   3.570623   2.501344
     7  C    2.507806   2.969916   4.293007   4.623404   3.792863
     8  C    2.512214   3.583290   4.513943   4.272909   3.156142
     9  C    2.867474   3.613989   4.362759   4.206769   3.370360
    10  C    4.231403   4.945568   5.592009   5.359865   4.564369
    11  C    5.073086   5.979746   6.708001   6.357847   5.381261
    12  C    4.903351   5.984667   6.831288   6.424654   5.271327
    13  C    3.778248   4.928980   5.857768   5.492761   4.272927
    14  C    4.389947   5.590273   6.567381   6.173255   4.888482
    15  C    6.256055   7.393192   8.254380   7.781261   6.572671
    16  H    2.079883   3.284332   4.176897   3.860207   2.674273
    17  H    2.240646   1.077281   2.145394   3.217257   3.303880
    18  H    3.162382   2.128794   1.008009   2.109130   3.167110
    19  H    3.197665   3.224930   2.134013   1.079888   2.135171
    20  H    3.452945   4.051636   5.359969   5.591839   4.635984
    21  H    2.797416   2.885661   4.243473   4.793568   4.149478
    22  H    2.755978   2.955275   4.224116   4.676510   4.004951
    23  H    2.491042   2.888708   3.521182   3.553637   3.014297
    24  H    4.849071   5.358663   5.855246   5.689483   5.102795
    25  H    6.125248   6.993940   7.669266   7.298634   6.368930
    26  H    5.033320   6.323171   7.162796   6.585152   5.272822
    27  H    3.907378   5.071914   6.063378   5.723738   4.470565
    28  H    5.198290   6.287524   7.375126   7.107564   5.852819
    29  H    6.445299   7.686116   8.461697   7.842974   6.591842
    30  H    6.608082   7.695916   8.683876   8.324462   7.096741
    31  H    7.041904   8.127124   8.936981   8.459165   7.309076
                    6          7          8          9         10
     6  C    0.000000
     7  C    1.530981   0.000000
     8  C    1.521947   2.497604   0.000000
     9  C    2.515433   3.352239   1.394810   0.000000
    10  C    3.801930   4.545258   2.421297   1.385023   0.000000
    11  C    4.310461   5.011997   2.789629   2.395112   1.387971
    12  C    3.836207   4.503629   2.427496   2.779815   2.415353
    13  C    2.552510   3.276794   1.403479   2.415627   2.799893
    14  C    3.004955   3.485534   2.549038   3.814763   4.303195
    15  C    5.079799   5.634845   3.810024   4.281617   3.784115
    16  H    1.095067   2.143705   2.132739   3.340474   4.513474
    17  H    3.062202   2.893190   4.051714   4.050968   5.337937
    18  H    4.603364   5.086835   5.454545   5.192903   6.364427
    19  H    4.571278   5.687977   5.168011   5.024047   6.050540
    20  H    2.171644   1.091927   2.719314   3.746006   4.731645
    21  H    2.171419   1.093650   2.765099   3.180289   4.302561
    22  H    2.180130   1.093276   3.459798   4.310459   5.569977
    23  H    2.687129   3.448419   2.141566   1.085421   2.144262
    24  H    4.662421   5.357641   3.403612   2.147487   1.085765
    25  H    5.396814   6.057790   3.876019   3.381614   2.148493
    26  H    3.791066   4.480409   3.284668   4.462031   4.803063
    27  H    2.546233   2.941984   2.693266   4.081137   4.860348
    28  H    3.731298   3.811517   3.259551   4.431264   4.781364
    29  H    5.305408   6.021553   4.173385   4.799272   4.436496
    30  H    5.287104   5.565205   4.174157   4.799984   4.436603
    31  H    5.957502   6.518965   4.577407   4.773033   3.973521
                   11         12         13         14         15
    11  C    0.000000
    12  C    1.391286   0.000000
    13  C    2.421353   1.407083   0.000000
    14  C    3.781758   2.497119   1.504252   0.000000
    15  C    2.500566   1.501937   2.527550   2.880558   0.000000
    16  H    4.792468   4.063161   2.686363   2.636580   5.098287
    17  H    6.382160   6.405646   5.366027   5.998730   7.803238
    18  H    7.551448   7.758135   6.819892   7.550988   9.201911
    19  H    7.039493   7.165241   6.317616   6.995948   8.483289
    20  H    4.909925   4.192979   3.018221   2.932398   5.107580
    21  H    4.949333   4.710194   3.697188   4.217409   5.937529
    22  H    6.077878   5.527815   4.235488   4.214539   6.607349
    23  H    3.380671   3.865207   3.394508   4.687049   5.367015
    24  H    2.150686   3.399126   3.885655   5.388874   4.650576
    25  H    1.086404   2.143350   3.402704   4.639795   2.687317
    26  H    4.116325   2.789972   2.155495   1.094475   2.790926
    27  H    4.594249   3.429393   2.176749   1.087722   3.964349
    28  H    4.114791   2.805691   2.152336   1.094895   2.841776
    29  H    3.234296   2.160434   2.853910   2.855504   1.094836
    30  H    3.236199   2.160447   2.848846   2.830668   1.094800
    31  H    2.586882   2.150048   3.432654   3.962076   1.091142
                   16         17         18         19         20
    16  H    0.000000
    17  H    3.852392   0.000000
    18  H    5.148896   2.540342   0.000000
    19  H    4.756562   4.200208   2.527343   0.000000
    20  H    2.491829   3.961661   6.173512   6.636396   0.000000
    21  H    3.059414   2.535437   4.922774   5.869673   1.762337
    22  H    2.489583   2.760005   4.927527   5.720347   1.772454
    23  H    3.636139   3.313570   4.260303   4.378912   4.103453
    24  H    5.447948   5.706517   6.508890   6.287393   5.633632
    25  H    5.859991   7.378728   8.478566   7.916029   5.902066
    26  H    3.240006   6.848509   8.166100   7.292151   3.989787
    27  H    1.922046   5.468679   7.033654   6.574299   2.473744
    28  H    3.480669   6.545002   8.331337   7.979876   2.988938
    29  H    5.110485   8.202250   9.440102   8.468623   5.517548
    30  H    5.282752   7.990723   9.627958   9.105880   4.856234
    31  H    6.068867   8.528074   9.853879   9.114242   6.028291
                   21         22         23         24         25
    21  H    0.000000
    22  H    1.773314   0.000000
    23  H    3.098996   4.252070   0.000000
    24  H    4.958275   6.347513   2.473806   0.000000
    25  H    5.940927   7.133630   4.280771   2.479273   0.000000
    26  H    5.249720   5.139547   5.366504   5.868491   4.849174
    27  H    3.867741   3.450781   4.767139   5.929590   5.539823
    28  H    4.452930   4.537545   5.330233   5.843703   4.855614
    29  H    6.481554   6.909386   5.863485   5.328543   3.453245
    30  H    5.883898   6.498238   5.866576   5.329090   3.457595
    31  H    6.700880   7.533668   5.837706   4.645387   2.308041
                   26         27         28         29         30
    26  H    0.000000
    27  H    1.760613   0.000000
    28  H    1.754151   1.757561   0.000000
    29  H    2.351706   3.890965   2.992575   0.000000
    30  H    2.894247   3.879942   2.377039   1.754637   0.000000
    31  H    3.845477   5.041382   3.886990   1.767072   1.767441
                   31
    31  H    0.000000
 Stoichiometry    C13H16N2
 Framework group  C1[X(C13H16N2)]
 Deg. of freedom    87
 Full point group                 C1      NOp   1
 RotChk:  IX=0 Diff= 1.90D-15
 Largest Abelian subgroup         C1      NOp   1
 Largest concise Abelian subgroup C1      NOp   1
                         Standard orientation:                         
 ---------------------------------------------------------------------
 Center     Atomic      Atomic             Coordinates (Angstroms)
 Number     Number       Type             X           Y           Z
 ---------------------------------------------------------------------
      1          6           0        1.997912    0.351346    0.130796
      2          6           0        3.049048    0.167224   -0.726273
      3          7           0        3.980116   -0.550451   -0.021613
      4          6           0        3.473245   -0.770730    1.210411
      5          7           0        2.278744   -0.241780    1.340734
      6          6           0        0.697204    1.050511   -0.103372
      7          6           0        0.724317    1.896290   -1.379234
      8          6           0       -0.485902    0.094003   -0.144263
      9          6           0       -0.292396   -1.205019   -0.613937
     10          6           0       -1.349265   -2.094065   -0.718408
     11          6           0       -2.622832   -1.687943   -0.344836
     12          6           0       -2.847905   -0.397563    0.124141
     13          6           0       -1.775976    0.508785    0.220999
     14          6           0       -2.068430    1.902243    0.706305
     15          6           0       -4.237131    0.015750    0.517891
     16          1           0        0.561583    1.721759    0.751149
     17          1           0        3.216617    0.473315   -1.745471
     18          1           0        4.882026   -0.850490   -0.357201
     19          1           0        4.014353   -1.313962    1.970846
     20          1           0       -0.218419    2.432410   -1.506236
     21          1           0        0.861648    1.260403   -2.258357
     22          1           0        1.536567    2.627595   -1.352869
     23          1           0        0.708642   -1.517740   -0.893700
     24          1           0       -1.181449   -3.102277   -1.084786
     25          1           0       -3.457242   -2.379898   -0.417158
     26          1           0       -2.532931    1.885046    1.697172
     27          1           0       -1.182266    2.529780    0.769929
     28          1           0       -2.776244    2.405947    0.039914
     29          1           0       -4.285035    0.321726    1.568010
     30          1           0       -4.586708    0.869669   -0.071351
     31          1           0       -4.944500   -0.802653    0.374938
 ---------------------------------------------------------------------
 Rotational constants (GHZ):           1.2701820           0.3639254           0.3266311
 Leave Link  202 at Sun Oct  9 17:17:37 2022, MaxMem=  3221225472 cpu:               0.1 elap:               0.0
 (Enter /public/gkxiao/software/g16/l301.exe)
 Standard basis: 6-311+G(2d,p) (5D, 7F)
 Ernie: Thresh=  0.10000D-02 Tol=  0.10000D-05 Strict=F.
 There are   531 symmetry adapted cartesian basis functions of A   symmetry.
 There are   501 symmetry adapted basis functions of A   symmetry.
   501 basis functions,   758 primitive gaussians,   531 cartesian basis functions
    54 alpha electrons       54 beta electrons
       nuclear repulsion energy       960.2336801557 Hartrees.
 IExCor= 3731 DFT=T Ex+Corr=APFD ExCW=0 ScaHFX=  0.229450
 ScaDFX=  1.000000  1.000000  1.000000  1.000000 ScalE2=  1.000000  1.000000
 IRadAn=      5 IRanWt=     -1 IRanGd=            0 ICorTp=0 IEmpDi=211
 NAtoms=   31 NActive=   31 NUniq=   31 SFac= 1.00D+00 NAtFMM=   60 NAOKFM=F Big=F
 Integral buffers will be    131072 words long.
 Regular integral format.
 Two-electron integral symmetry is turned on.
 R6APFD:  NTU= -4 IXU= 1 FactS= 1.050
 R6Disp:  Petersson-Frisch Dispersion energy=       -0.0242112972 Hartrees.
 Nuclear repulsion after empirical dispersion term =      960.2094688585 Hartrees.
 ------------------------------------------------------------------------------
 Polarizable Continuum Model (PCM)
 =================================
 Model                : PCM.
 Atomic radii         : UFF (Universal Force Field).
 Polarization charges : Total charges.
 Charge compensation  : None.
 Solution method      : Matrix inversion.
 Cavity type          : Scaled VdW (van der Waals Surface) (Alpha=1.100).
 Cavity algorithm     : GePol (No added spheres)
                        Default sphere list used, NSphG=   31.
                        Lebedev-Laikov grids with approx.  5.0 points / Ang**2.
                        Smoothing algorithm: York/Karplus (Gamma=1.0000).
                        Polarization charges: spherical gaussians, with
                                              point-specific exponents (IZeta= 3).
                        Self-potential: point-specific (ISelfS= 7).
                        Self-field    : sphere-specific E.n sum rule (ISelfD= 2).
 Solvent              : Methanol, Eps=  32.613000 Eps(inf)=   1.765709
 ------------------------------------------------------------------------------
 GePol: Number of generator spheres                  =      31
 GePol: Total number of spheres                      =      31
 GePol: Number of exposed spheres                    =      31 (100.00%)
 GePol: Number of points                             =    2201
 GePol: Average weight of points                     =       0.13
 GePol: Minimum weight of points                     =   0.21D-11
 GePol: Maximum weight of points                     =    0.20577
 GePol: Number of points with low weight             =     146
 GePol: Fraction of low-weight points (<1% of avg)   =       6.63%
 GePol: Cavity surface area                          =    286.941 Ang**2
 GePol: Cavity volume                                =    308.443 Ang**3
 Leave Link  301 at Sun Oct  9 17:17:37 2022, MaxMem=  3221225472 cpu:               1.6 elap:               0.1
 (Enter /public/gkxiao/software/g16/l302.exe)
 NPDir=0 NMtPBC=     1 NCelOv=     1 NCel=       1 NClECP=     1 NCelD=      1
         NCelK=      1 NCelE2=     1 NClLst=     1 CellRange=     0.0.
 One-electron integrals computed using PRISM.
 One-electron integral symmetry used in STVInt
 NBasis=   501 RedAO= T EigKep=  1.02D-06  NBF=   501
 NBsUse=   498 1.00D-06 EigRej=  7.68D-07 NBFU=   498
 Precomputing XC quadrature grid using
 IXCGrd= 4 IRadAn=           5 IRanWt=          -1 IRanGd=           0 AccXCQ= 0.00D+00.
 Generated NRdTot=       0 NPtTot=           0 NUsed=           0 NTot=          32
 NSgBfM=   531   531   531   531   531 MxSgAt=    31 MxSgA2=    31.
 Leave Link  302 at Sun Oct  9 17:17:37 2022, MaxMem=  3221225472 cpu:              12.3 elap:               0.5
 (Enter /public/gkxiao/software/g16/l303.exe)
 DipDrv:  MaxL=1.
 Leave Link  303 at Sun Oct  9 17:17:37 2022, MaxMem=  3221225472 cpu:               1.9 elap:               0.1
 (Enter /public/gkxiao/software/g16/l308.exe)
 Leave Link  308 at Sun Oct  9 17:17:38 2022, MaxMem=  3221225472 cpu:               3.2 elap:               0.2
 (Enter /public/gkxiao/software/g16/l401.exe)
 Initial guess from the checkpoint file:  "CONF_01_ECD.chk"
 B after Tr=    -0.000000   -0.000000    0.000000
         Rot=    1.000000    0.000000    0.000000    0.000000 Ang=   0.00 deg.
 Guess basis will be translated and rotated to current coordinates.
 JPrj=2 DoOrth=T DoCkMO=T.
 Leave Link  401 at Sun Oct  9 17:17:38 2022, MaxMem=  3221225472 cpu:               9.0 elap:               0.4
 (Enter /public/gkxiao/software/g16/l502.exe)
 Integral symmetry usage will be decided dynamically.
 Closed shell SCF:
 Using DIIS extrapolation, IDIIS=  1040.
 NGot=  3221225472 LenX=  3220643817 LenY=  3220361325
 Requested convergence on RMS density matrix=1.00D-08 within 128 cycles.
 Requested convergence on MAX density matrix=1.00D-06.
 Requested convergence on             energy=1.00D-06.
 No special actions if energy rises.
 Fock matrices will be formed incrementally for  20 cycles.

 Cycle   1  Pass 1  IDiag  1:
 FoFJK:  IHMeth= 1 ICntrl=       0 DoSepK=F KAlg= 0 I1Cent=           0 FoldK=F
 IRaf= 870000000 NMat=       1 IRICut=       1 DoRegI=T DoRafI=F ISym2E= 0 IDoP0=0 IntGTp=1.
 FoFCou: FMM=F IPFlag=           0 FMFlag=      100000 FMFlg1=           0
         NFxFlg=           0 DoJE=F BraDBF=F KetDBF=F FulRan=T
         wScrn=  0.000000 ICntrl=         0 IOpCl=  0 I1Cent=           0 NGrid=           0
         NMat0=    1 NMatS0=      1 NMatT0=    0 NMatD0=    1 NMtDS0=    0 NMtDT0=    0
 Symmetry not used in FoFCou.
 Inv3:  Mode=1 IEnd=    14533203.
 Iteration    1 A*A^-1 deviation from unit magnitude is 3.89D-15 for    235.
 Iteration    1 A*A^-1 deviation from orthogonality  is 2.05D-15 for   1320    539.
 Iteration    1 A^-1*A deviation from unit magnitude is 2.78D-15 for    416.
 Iteration    1 A^-1*A deviation from orthogonality  is 1.90D-15 for   1965   1885.
 E= -614.209835638106    
 DIIS: error= 1.70D-08 at cycle   1 NSaved=   1.
 NSaved= 1 IEnMin= 1 EnMin= -614.209835638106     IErMin= 1 ErrMin= 1.70D-08
 ErrMax= 1.70D-08  0.00D+00 EMaxC= 1.00D-01 BMatC= 1.66D-13 BMatP= 1.66D-13
 IDIUse=1 WtCom= 1.00D+00 WtEn= 0.00D+00
 Coeff-Com:  0.100D+01
 Coeff:      0.100D+01
 Gap=     0.230 Goal=   None    Shift=    0.000
 RMSDP=6.12D-09 MaxDP=4.38D-07              OVMax= 4.47D-07

 Error on total polarization charges =  0.01683
 SCF Done:  E(RAPFD) =  -614.209835638     A.U. after    1 cycles
            NFock=  1  Conv=0.61D-08     -V/T= 2.0044
 KE= 6.115078150266D+02 PE=-3.348202430217D+03 EE= 1.162275310694D+03
 Leave Link  502 at Sun Oct  9 17:17:48 2022, MaxMem=  3221225472 cpu:             223.8 elap:               9.8
 (Enter /public/gkxiao/software/g16/l801.exe)
 DoSCS=F DFT=T ScalE2(SS,OS)=  1.000000  1.000000
 ExpMin= 4.38D-02 ExpMax= 6.29D+03 ExpMxC= 9.49D+02 IAcc=3 IRadAn=         5 AccDes= 0.00D+00
 HarFok:  IExCor=  205 AccDes= 0.00D+00 IRadAn=         5 IDoV=-2 UseB2=F ITyADJ=14
 ICtDFT= 12500011 ScaDFX=  1.000000  1.000000  1.000000  1.000000
 Largest valence mixing into a core orbital is  5.43D-05
 Largest core mixing into a valence orbital is  1.38D-05
 Range of M.O.s used for correlation:    16   498
 NBasis=   501 NAE=    54 NBE=    54 NFC=    15 NFV=     0
 NROrb=    483 NOA=    39 NOB=    39 NVA=   444 NVB=   444

 **** Warning!!: The largest alpha MO coefficient is  0.19073268D+03

 Leave Link  801 at Sun Oct  9 17:17:48 2022, MaxMem=  3221225472 cpu:               4.5 elap:               0.3
 (Enter /public/gkxiao/software/g16/l914.exe)
 RHF ground state
 Two-electron integrals replicated using symmetry.
 MDV=  3221225472 DFT=T DoStab=F Mixed=T DoRPA=T DoScal=F NonHer=T
 NEqPCM:  Using non-equilibrium solvation (IEInf=1, Eps=  32.6130, EpsInf=   1.7657)
 Inv3:  Mode=1 IEnd=    14533203.
 Iteration    1 A*A^-1 deviation from unit magnitude is 3.00D-15 for   1757.
 Iteration    1 A*A^-1 deviation from orthogonality  is 1.89D-15 for   1423    622.
 Iteration    1 A^-1*A deviation from unit magnitude is 3.33D-15 for    717.
 Iteration    1 A^-1*A deviation from orthogonality  is 1.44D-15 for   2109    879.
 Making orbital integer symmetry assigments:
 Orbital symmetries:
       Occupied  (A) (A) (A) (A) (A) (A) (A) (A) (A) (A) (A) (A)
                 (A) (A) (A) (A) (A) (A) (A) (A) (A) (A) (A) (A)
                 (A) (A) (A) (A) (A) (A) (A) (A) (A) (A) (A) (A)
                 (A) (A) (A) (A) (A) (A) (A) (A) (A) (A) (A) (A)
                 (A) (A) (A) (A) (A) (A)
       Virtual   (A) (A) (A) (A) (A) (A) (A) (A) (A) (A) (A) (A)
                 (A) (A) (A) (A) (A) (A) (A) (A) (A) (A) (A) (A)
                 (A) (A) (A) (A) (A) (A) (A) (A) (A) (A) (A) (A)
                 (A) (A) (A) (A) (A) (A) (A) (A) (A) (A) (A) (A)
                 (A) (A) (A) (A) (A) (A) (A) (A) (A) (A) (A) (A)
                 (A) (A) (A) (A) (A) (A) (A) (A) (A) (A) (A) (A)
                 (A) (A) (A) (A) (A) (A) (A) (A) (A) (A) (A) (A)
                 (A) (A) (A) (A) (A) (A) (A) (A) (A) (A) (A) (A)
                 (A) (A) (A) (A) (A) (A) (A) (A) (A) (A) (A) (A)
                 (A) (A) (A) (A) (A) (A) (A) (A) (A) (A) (A) (A)
                 (A) (A) (A) (A) (A) (A) (A) (A) (A) (A) (A) (A)
                 (A) (A) (A) (A) (A) (A) (A) (A) (A) (A) (A) (A)
                 (A) (A) (A) (A) (A) (A) (A) (A) (A) (A) (A) (A)
                 (A) (A) (A) (A) (A) (A) (A) (A) (A) (A) (A) (A)
                 (A) (A) (A) (A) (A) (A) (A) (A) (A) (A) (A) (A)
                 (A) (A) (A) (A) (A) (A) (A) (A) (A) (A) (A) (A)
                 (A) (A) (A) (A) (A) (A) (A) (A) (A) (A) (A) (A)
                 (A) (A) (A) (A) (A) (A) (A) (A) (A) (A) (A) (A)
                 (A) (A) (A) (A) (A) (A) (A) (A) (A) (A) (A) (A)
                 (A) (A) (A) (A) (A) (A) (A) (A) (A) (A) (A) (A)
                 (A) (A) (A) (A) (A) (A) (A) (A) (A) (A) (A) (A)
                 (A) (A) (A) (A) (A) (A) (A) (A) (A) (A) (A) (A)
                 (A) (A) (A) (A) (A) (A) (A) (A) (A) (A) (A) (A)
                 (A) (A) (A) (A) (A) (A) (A) (A) (A) (A) (A) (A)
                 (A) (A) (A) (A) (A) (A) (A) (A) (A) (A) (A) (A)
                 (A) (A) (A) (A) (A) (A) (A) (A) (A) (A) (A) (A)
                 (A) (A) (A) (A) (A) (A) (A) (A) (A) (A) (A) (A)
                 (A) (A) (A) (A) (A) (A) (A) (A) (A) (A) (A) (A)
                 (A) (A) (A) (A) (A) (A) (A) (A) (A) (A) (A) (A)
                 (A) (A) (A) (A) (A) (A) (A) (A) (A) (A) (A) (A)
                 (A) (A) (A) (A) (A) (A) (A) (A) (A) (A) (A) (A)
                 (A) (A) (A) (A) (A) (A) (A) (A) (A) (A) (A) (A)
                 (A) (A) (A) (A) (A) (A) (A) (A) (A) (A) (A) (A)
                 (A) (A) (A) (A) (A) (A) (A) (A) (A) (A) (A) (A)
                 (A) (A) (A) (A) (A) (A) (A) (A) (A) (A) (A) (A)
                 (A) (A) (A) (A) (A) (A) (A) (A) (A) (A) (A) (A)
                 (A) (A) (A) (A) (A) (A) (A) (A) (A) (A) (A) (A)
   400 initial guesses have been made.
 Convergence on wavefunction:    0.001000000000000
 Davidson Disk Diagonalization:  ConvIn= 1.00D-03 SkipCon=T Conv= 1.00D-03.
 Max sub-space:  6000 roots to seek:   400 dimension of matrix:        34632
 Iteration     1 Dimension   400 NMult     0 NNew    400
 CISAX will form   216 AO SS matrices at one time.
 NMat=   216 NSing=   216 JSym2X= 0.
 FoFJK:  IHMeth= 1 ICntrl=       0 DoSepK=F KAlg= 0 I1Cent=           0 FoldK=F
 IRaf= 870000000 NMat=     432 IRICut=     540 DoRegI=T DoRafI=T ISym2E= 0 IDoP0=3 IntGTp=3.
 NMat=   184 NSing=   184 JSym2X= 0.
 New state      1 was old state      4
 New state      2 was old state      1
 New state      3 was old state      2
 New state      4 was old state      7
 New state      5 was old state     10
 New state      6 was old state     11
 New state      7 was old state      8
 New state      8 was old state     12
 New state     10 was old state     18
 New state     11 was old state     14
 New state     12 was old state     17
 New state     13 was old state     20
 New state     14 was old state     15
 New state     15 was old state     13
 New state     17 was old state     19
 New state     18 was old state     23
 New state     19 was old state     25
 New state     20 was old state     21
 New state     21 was old state     29
 New state     23 was old state     30
 New state     25 was old state     27
 New state     26 was old state     32
 New state     27 was old state     26
 New state     28 was old state     31
 New state     29 was old state     28
 New state     30 was old state     33
 New state     31 was old state     49
 New state     32 was old state     34
 New state     33 was old state     41
 New state     34 was old state     36
 New state     36 was old state     44
 New state     40 was old state     46
 New state     41 was old state     45
 New state     42 was old state     40
 New state     43 was old state     55
 New state     44 was old state     43
 New state     45 was old state     65
 New state     46 was old state     42
 New state     47 was old state     71
 New state     49 was old state     50
 New state     50 was old state     47
 New state     51 was old state     74
 New state     52 was old state     69
 New state     53 was old state     52
 New state     54 was old state     79
 New state     55 was old state     53
 New state     56 was old state     54
 New state     57 was old state     91
 New state     58 was old state     56
 New state     59 was old state     57
 New state     60 was old state     66
 New state     61 was old state     62
 New state     62 was old state     58
 New state     63 was old state     61
 New state     64 was old state     59
 New state     65 was old state     60
 New state     66 was old state     63
 New state     68 was old state     97
 New state     69 was old state     64
 New state     70 was old state     68
 New state     71 was old state     70
 New state     74 was old state     82
 New state     77 was old state     90
 New state     79 was old state     77
 New state     81 was old state     86
 New state     82 was old state     87
 New state     83 was old state     81
 New state     84 was old state     85
 New state     85 was old state     88
 New state     86 was old state    104
 New state     87 was old state     84
 New state     88 was old state     89
 New state     89 was old state     94
 New state     90 was old state    110
 New state     91 was old state     95
 New state     92 was old state     83
 New state     94 was old state    131
 New state     95 was old state     92
 New state     96 was old state    101
 New state     97 was old state    114
 New state     98 was old state    100
 New state     99 was old state    102
 New state    100 was old state     96
 Excitation Energies [eV] at current iteration:
 Root      1 :     5.287252694818183
 Root      2 :     5.571038011194223
 Root      3 :     5.620343497535036
 Root      4 :     5.921192549513230
 Root      5 :     6.181741340099832
 Root      6 :     6.219140243999233
 Root      7 :     6.292585881699826
 Root      8 :     6.357959971152639
 Root      9 :     6.438925896238694
 Root     10 :     6.442749555891526
 Root     11 :     6.519099963066815
 Root     12 :     6.556459589786241
 Root     13 :     6.601499349152096
 Root     14 :     6.647677525103257
 Root     15 :     6.674799885289659
 Root     16 :     6.706770921919010
 Root     17 :     6.796605655660079
 Root     18 :     6.833669948502386
 Root     19 :     6.861496078041072
 Root     20 :     6.881656799571226
 Root     21 :     6.900824928119701
 Root     22 :     6.967428365579091
 Root     23 :     6.998223748428069
 Root     24 :     7.041266157406127
 Root     25 :     7.050419195526374
 Root     26 :     7.055666739093061
 Root     27 :     7.070738215738952
 Root     28 :     7.096254341395040
 Root     29 :     7.124217341130316
 Root     30 :     7.145088299010319
 Root     31 :     7.175498421633132
 Root     32 :     7.206500093000120
 Root     33 :     7.230989679353167
 Root     34 :     7.295543469251852
 Root     35 :     7.314043210355829
 Root     36 :     7.342670023330950
 Root     37 :     7.390962465590666
 Root     38 :     7.418504336273011
 Root     39 :     7.457437295134152
 Root     40 :     7.482063733708010
 Root     41 :     7.492601859288166
 Root     42 :     7.506274860369309
 Root     43 :     7.522069125769165
 Root     44 :     7.595515519643319
 Root     45 :     7.598198612797166
 Root     46 :     7.609190349907808
 Root     47 :     7.625931297147177
 Root     48 :     7.655811190650972
 Root     49 :     7.664789598868200
 Root     50 :     7.677101045556323
 Root     51 :     7.688215051847515
 Root     52 :     7.711991088981602
 Root     53 :     7.734470676747957
 Root     54 :     7.760101499992371
 Root     55 :     7.780793110922871
 Root     56 :     7.822206909181807
 Root     57 :     7.843842877913175
 Root     58 :     7.863794518959466
 Root     59 :     7.897750058497077
 Root     60 :     7.920398600724159
 Root     61 :     7.981803362080109
 Root     62 :     8.010527635259166
 Root     63 :     8.039034861417303
 Root     64 :     8.075211239694838
 Root     65 :     8.085508657448431
 Root     66 :     8.098032959551304
 Root     67 :     8.135213816571888
 Root     68 :     8.136356374827967
 Root     69 :     8.145391006943580
 Root     70 :     8.199347678190680
 Root     71 :     8.267741269588553
 Root     72 :     8.300067931569028
 Root     73 :     8.327087780196656
 Root     74 :     8.341417913983456
 Root     75 :     8.367637596911823
 Root     76 :     8.385977104453605
 Root     77 :     8.406661823908459
 Root     78 :     8.466083003732123
 Root     79 :     8.483257005855616
 Root     80 :     8.489341558201097
 Root     81 :     8.502923405835631
 Root     82 :     8.517610223007958
 Root     83 :     8.526882528253951
 Root     84 :     8.547653393114176
 Root     85 :     8.578705621324033
 Root     86 :     8.588612385401682
 Root     87 :     8.604058359463750
 Root     88 :     8.624961528903594
 Root     89 :     8.647270620411776
 Root     90 :     8.654890768744560
 Root     91 :     8.662301773171325
 Root     92 :     8.665972753219259
 Root     93 :     8.693000932689749
 Root     94 :     8.701473473237588
 Root     95 :     8.711355245604292
 Root     96 :     8.730870963700355
 Root     97 :     8.734214933220750
 Root     98 :     8.751058358910923
 Root     99 :     8.772768832474126
 Root    100 :     8.790444784345187
 Root    101 :     8.815403152866157
 Root    102 :     8.828506751877866
 Root    103 :     8.876005917094385
 Root    104 :     8.893212510808789
 Root    105 :     8.906206348657660
 Root    106 :     8.927650912268007
 Root    107 :     8.940327676889012
 Root    108 :     8.947094594229828
 Root    109 :     8.961580877585531
 Root    110 :     8.971713477001066
 Root    111 :     8.973951383702932
 Root    112 :     9.015614242267398
 Root    113 :     9.024226647310849
 Root    114 :     9.045022937108277
 Root    115 :     9.046653749321615
 Root    116 :     9.074540406447079
 Root    117 :     9.079836294970828
 Root    118 :     9.086927494212889
 Root    119 :     9.112174865585940
 Root    120 :     9.122761164204054
 Root    121 :     9.135057523949145
 Root    122 :     9.150815821446352
 Root    123 :     9.164417725230228
 Root    124 :     9.177928190781632
 Root    125 :     9.189563885826809
 Root    126 :     9.207052440126413
 Root    127 :     9.241694687685136
 Root    128 :     9.251242062267805
 Root    129 :     9.272653557933056
 Root    130 :     9.281611794497534
 Root    131 :     9.293722338850296
 Root    132 :     9.307309331163454
 Root    133 :     9.313828414763309
 Root    134 :     9.324205691924583
 Root    135 :     9.337840863363347
 Root    136 :     9.343123671072920
 Root    137 :     9.352982925238036
 Root    138 :     9.361563375890226
 Root    139 :     9.367245528026348
 Root    140 :     9.373551554564564
 Root    141 :     9.383375172852160
 Root    142 :     9.404727651165473
 Root    143 :     9.419307592178592
 Root    144 :     9.439677930121393
 Root    145 :     9.467006756373079
 Root    146 :     9.483193649261450
 Root    147 :     9.493626719999991
 Root    148 :     9.512174113087209
 Root    149 :     9.518166861431473
 Root    150 :     9.551753627329694
 Root    151 :     9.557504631587687
 Root    152 :     9.576504200460755
 Root    153 :     9.587236877238398
 Root    154 :     9.598312239155815
 Root    155 :     9.605486327774656
 Root    156 :     9.622461532836208
 Root    157 :     9.629491074778256
 Root    158 :     9.648494864736307
 Root    159 :     9.671706745380801
 Root    160 :     9.687013681877565
 Root    161 :     9.698293765143223
 Root    162 :     9.714504489414418
 Root    163 :     9.721280165856585
 Root    164 :     9.727004606638364
 Root    165 :     9.731711532259371
 Root    166 :     9.751481193373282
 Root    167 :     9.764398210501140
 Root    168 :     9.786119281773466
 Root    169 :     9.791473568331446
 Root    170 :     9.802187677495633
 Root    171 :     9.815731964738232
 Root    172 :     9.819241092179778
 Root    173 :     9.833024149129360
 Root    174 :     9.840999333168076
 Root    175 :     9.841738124857921
 Root    176 :     9.866118906175668
 Root    177 :     9.870305788631258
 Root    178 :     9.878643922722574
 Root    179 :     9.881719697566288
 Root    180 :     9.900982988623293
 Root    181 :     9.905545186908364
 Root    182 :     9.923881975443383
 Root    183 :     9.926785526082178
 Root    184 :     9.934686799853560
 Root    185 :     9.946164425783140
 Root    186 :     9.950513952509242
 Root    187 :     9.958821884003283
 Root    188 :     9.991010037342125
 Root    189 :     9.997355857205788
 Root    190 :    10.017452349119234
 Root    191 :    10.020493935408682
 Root    192 :    10.029843148142824
 Root    193 :    10.045459213046360
 Root    194 :    10.061575356396705
 Root    195 :    10.062622853125978
 Root    196 :    10.082125334750602
 Root    197 :    10.084937595738365
 Root    198 :    10.098553147166882
 Root    199 :    10.104757580750313
 Root    200 :    10.115997400801804
 Root    201 :    10.120128458765112
 Root    202 :    10.135988414576239
 Root    203 :    10.141379405015192
 Root    204 :    10.150834840798490
 Root    205 :    10.158581059441650
 Root    206 :    10.166452889916915
 Root    207 :    10.194818764827552
 Root    208 :    10.203415373097181
 Root    209 :    10.211203210323283
 Root    210 :    10.223590040554884
 Root    211 :    10.237808542833285
 Root    212 :    10.254581426224052
 Root    213 :    10.277793055820435
 Root    214 :    10.284480725992916
 Root    215 :    10.290534525125635
 Root    216 :    10.293175507017114
 Root    217 :    10.325673717735988
 Root    218 :    10.327429408101539
 Root    219 :    10.331959133985453
 Root    220 :    10.344569827389146
 Root    221 :    10.355751707954125
 Root    222 :    10.369724414349873
 Root    223 :    10.376983809547532
 Root    224 :    10.380535673051783
 Root    225 :    10.384808649366210
 Root    226 :    10.391305653425404
 Root    227 :    10.399215128448718
 Root    228 :    10.406458566250800
 Root    229 :    10.411585369887151
 Root    230 :    10.412678872940621
 Root    231 :    10.418855128224473
 Root    232 :    10.426549832817413
 Root    233 :    10.440524529675159
 Root    234 :    10.442525912147465
 Root    235 :    10.455783751787605
 Root    236 :    10.467540191647542
 Root    237 :    10.473968259476553
 Root    238 :    10.486161184740201
 Root    239 :    10.492682822704511
 Root    240 :    10.497954514352719
 Root    241 :    10.507558182829110
 Root    242 :    10.518917070984960
 Root    243 :    10.526533311684819
 Root    244 :    10.543472175859694
 Root    245 :    10.552245468204861
 Root    246 :    10.560873652250820
 Root    247 :    10.565833673120538
 Root    248 :    10.573236222313131
 Root    249 :    10.580264868668699
 Root    250 :    10.593833432308509
 Root    251 :    10.596901131195089
 Root    252 :    10.613640375683937
 Root    253 :    10.626170503948646
 Root    254 :    10.633344961647280
 Root    255 :    10.635652834184894
 Root    256 :    10.643286561445247
 Root    257 :    10.655292159778794
 Root    258 :    10.664194478305138
 Root    259 :    10.667671291438653
 Root    260 :    10.678896306484802
 Root    261 :    10.684604949004841
 Root    262 :    10.698053976665845
 Root    263 :    10.705015581708514
 Root    264 :    10.716302507989809
 Root    265 :    10.721748744334695
 Root    266 :    10.731131279442058
 Root    267 :    10.745563526652370
 Root    268 :    10.749905655459115
 Root    269 :    10.760000063117705
 Root    270 :    10.774106773663659
 Root    271 :    10.788137473574938
 Root    272 :    10.794509733419906
 Root    273 :    10.808467455611682
 Root    274 :    10.819202627252691
 Root    275 :    10.832101004207216
 Root    276 :    10.838615275395998
 Root    277 :    10.845813586377005
 Root    278 :    10.852426136554852
 Root    279 :    10.857867298148751
 Root    280 :    10.859382343082215
 Root    281 :    10.867353087958348
 Root    282 :    10.875839835007886
 Root    283 :    10.881797721527096
 Root    284 :    10.887991734225599
 Root    285 :    10.890642341617953
 Root    286 :    10.902919556899290
 Root    287 :    10.907668228350374
 Root    288 :    10.917404013319663
 Root    289 :    10.924182168667276
 Root    290 :    10.927839813124685
 Root    291 :    10.931937951254682
 Root    292 :    10.941711954370900
 Root    293 :    10.944081873839757
 Root    294 :    10.955608770847507
 Root    295 :    10.957467693638893
 Root    296 :    10.970055174062969
 Root    297 :    10.976141153737029
 Root    298 :    10.982493837042474
 Root    299 :    10.987919854763900
 Root    300 :    11.002833018569989
 Root    301 :    11.017506853468236
 Root    302 :    11.019789988570583
 Root    303 :    11.031214218239201
 Root    304 :    11.042706891437593
 Root    305 :    11.046344823808884
 Root    306 :    11.048039057173243
 Root    307 :    11.052980673511890
 Root    308 :    11.073134015288275
 Root    309 :    11.079741314653322
 Root    310 :    11.085425578170341
 Root    311 :    11.090365914533898
 Root    312 :    11.095066717475035
 Root    313 :    11.108370162214017
 Root    314 :    11.117660976787990
 Root    315 :    11.126630168539679
 Root    316 :    11.141499284881853
 Root    317 :    11.146842122361551
 Root    318 :    11.154364654646468
 Root    319 :    11.165181968887397
 Root    320 :    11.172711495107361
 Root    321 :    11.178121686583143
 Root    322 :    11.182102221672332
 Root    323 :    11.195950726670299
 Root    324 :    11.204890248023517
 Root    325 :    11.210587783373567
 Root    326 :    11.220864499909881
 Root    327 :    11.223162442647137
 Root    328 :    11.230242757482971
 Root    329 :    11.233008462488616
 Root    330 :    11.241061769531246
 Root    331 :    11.244970230775731
 Root    332 :    11.252432312643057
 Root    333 :    11.260352618885271
 Root    334 :    11.266453357369240
 Root    335 :    11.276206373945040
 Root    336 :    11.283422321518701
 Root    337 :    11.290777024289786
 Root    338 :    11.291614359577407
 Root    339 :    11.302989159491444
 Root    340 :    11.304999125285345
 Root    341 :    11.306657229245753
 Root    342 :    11.311202423631393
 Root    343 :    11.316703478817775
 Root    344 :    11.321112504853382
 Root    345 :    11.329282539700637
 Root    346 :    11.336223087518308
 Root    347 :    11.348820162906319
 Root    348 :    11.356502682273888
 Root    349 :    11.362625844639231
 Root    350 :    11.367915779240731
 Root    351 :    11.381445993931981
 Root    352 :    11.382145998316142
 Root    353 :    11.386809271414178
 Root    354 :    11.393425351666910
 Root    355 :    11.395789895682636
 Root    356 :    11.401952825707520
 Root    357 :    11.413488319059212
 Root    358 :    11.424049116958113
 Root    359 :    11.429338979720061
 Root    360 :    11.444619009708973
 Root    361 :    11.457811470856786
 Root    362 :    11.459989779421967
 Root    363 :    11.466562221393710
 Root    364 :    11.470757693477148
 Root    365 :    11.476914898766688
 Root    366 :    11.487245622105945
 Root    367 :    11.488026611957915
 Root    368 :    11.493923025959086
 Root    369 :    11.501757882632457
 Root    370 :    11.507827392178894
 Root    371 :    11.517529800391014
 Root    372 :    11.520572684774518
 Root    373 :    11.534574977505478
 Root    374 :    11.540295230082400
 Root    375 :    11.544221764111429
 Root    376 :    11.549852013437718
 Root    377 :    11.555206307585305
 Root    378 :    11.563780226350163
 Root    379 :    11.575989790991347
 Root    380 :    11.580375115202038
 Root    381 :    11.592672891789382
 Root    382 :    11.596465193482693
 Root    383 :    11.610716199843322
 Root    384 :    11.617655046396433
 Root    385 :    11.624448373362501
 Root    386 :    11.632579282603412
 Root    387 :    11.640796183086621
 Root    388 :    11.648204220133399
 Root    389 :    11.652641668041188
 Root    390 :    11.655848766658181
 Root    391 :    11.661133201743109
 Root    392 :    11.679376179452495
 Root    393 :    11.694560351879179
 Root    394 :    11.703715704180322
 Root    395 :    11.735584180273332
 Root    396 :    11.751605619184947
 Root    397 :    11.771981633247540
 Root    398 :    11.798761626611318
 Root    399 :    11.833087310965613
 Root    400 :    11.917362851982482
 Iteration     2 Dimension   600 NMult   400 NNew    200
 CISAX will form   200 AO SS matrices at one time.
 NMat=   200 NSing=   200 JSym2X= 0.
 Root      1 not converged, maximum delta is    0.015460074843655
 Root      2 not converged, maximum delta is    0.088974268609529
 Root      3 not converged, maximum delta is    0.042614674248921
 New state      4 was old state      8
 Root      4 not converged, maximum delta is    0.327388191424414
 New state      5 was old state      4
 Root      5 not converged, maximum delta is    0.034126420759933
 New state      6 was old state      7
 Root      6 not converged, maximum delta is    0.234627979136992
 New state      7 was old state      5
 Root      7 not converged, maximum delta is    0.170632735054973
 New state      8 was old state      6
 Root      8 not converged, maximum delta is    0.191266024887019
 New state      9 was old state     10
 Root      9 not converged, maximum delta is    0.314556158198092
 New state     10 was old state      9
 Root     10 not converged, maximum delta is    0.293427138946272
 Root     11 not converged, maximum delta is    0.324552694087359
 Root     12 not converged, maximum delta is    0.546217913682100
 Root     13 not converged, maximum delta is    0.326283256655379
 Root     14 not converged, maximum delta is    0.406806826595868
 New state     15 was old state     17
 Root     15 not converged, maximum delta is    0.433596248092266
 New state     16 was old state     15
 Root     16 not converged, maximum delta is    0.471025435667286
 New state     17 was old state     16
 Root     17 not converged, maximum delta is    0.234747110192400
 New state     18 was old state     23
 Root     18 not converged, maximum delta is    0.546866940193963
 New state     19 was old state     21
 Root     19 not converged, maximum delta is    0.297496080041758
 New state     20 was old state     18
 Root     20 not converged, maximum delta is    0.333405072422080
 New state     21 was old state     19
 Root     21 not converged, maximum delta is    0.157487363913103
 New state     22 was old state     20
 Root     22 not converged, maximum delta is    0.224405565691442
 New state     23 was old state     22
 Root     23 not converged, maximum delta is    0.322829359969300
 New state     24 was old state     29
 Root     24 not converged, maximum delta is    0.470090249548842
 New state     25 was old state     24
 Root     25 not converged, maximum delta is    0.256248180340849
 Root     26 not converged, maximum delta is    0.331714194760117
 New state     27 was old state     25
 Root     27 not converged, maximum delta is    0.410428486755644
 New state     28 was old state     27
 Root     28 not converged, maximum delta is    0.275084755385474
 New state     29 was old state     28
 Root     29 not converged, maximum delta is    0.468966490684038
 Root     30 not converged, maximum delta is    0.397922481530497
 Root     31 not converged, maximum delta is    0.410098970804664
 New state     32 was old state     33
 Root     32 not converged, maximum delta is    0.258702989244303
 New state     33 was old state     32
 Root     33 not converged, maximum delta is    0.468622090889111
 Root     34 not converged, maximum delta is    0.443984770557114
 New state     35 was old state     38
 Root     35 not converged, maximum delta is    0.291558860344367
 New state     36 was old state     35
 Root     36 not converged, maximum delta is    0.259452813522707
 New state     37 was old state     36
 Root     37 not converged, maximum delta is    0.184721334663544
 New state     38 was old state     37
 Root     38 not converged, maximum delta is    0.019062276414860
 Root     39 not converged, maximum delta is    0.090795600476761
 New state     40 was old state     41
 Root     40 not converged, maximum delta is    0.335843372295785
 New state     41 was old state     40
 Root     41 not converged, maximum delta is    0.126928284205668
 Root     42 not converged, maximum delta is    0.104823780190808
 Root     43 not converged, maximum delta is    0.109639481824451
 New state     44 was old state     45
 Root     44 not converged, maximum delta is    0.325139508986639
 New state     45 was old state     49
 Root     45 not converged, maximum delta is    0.290395619012284
 Root     46 not converged, maximum delta is    0.265091150642241
 New state     47 was old state     44
 Root     47 not converged, maximum delta is    0.317843704875959
 New state     48 was old state     47
 Root     48 not converged, maximum delta is    0.395146995495961
 New state     49 was old state     50
 Root     49 not converged, maximum delta is    0.284322266921213
 New state     50 was old state     51
 Root     50 not converged, maximum delta is    0.309720665275315
 New state     51 was old state     48
 Root     51 not converged, maximum delta is    0.398892805475215
 New state     52 was old state     55
 Root     52 not converged, maximum delta is    0.346299854243910
 New state     53 was old state     52
 Root     53 not converged, maximum delta is    0.303995761829832
 New state     54 was old state     53
 Root     54 not converged, maximum delta is    0.245933594206583
 New state     55 was old state     54
 Root     55 not converged, maximum delta is    0.327320419291332
 Root     56 not converged, maximum delta is    0.359644411750470
 Root     57 not converged, maximum delta is    0.344890613590864
 New state     58 was old state     61
 Root     58 not converged, maximum delta is    0.407430629869895
 New state     59 was old state     58
 Root     59 not converged, maximum delta is    0.162825225006213
 New state     60 was old state     59
 Root     60 not converged, maximum delta is    0.169220627340375
 New state     61 was old state     60
 Root     61 not converged, maximum delta is    0.124001251730742
 New state     62 was old state     63
 Root     62 not converged, maximum delta is    0.301843917788901
 New state     63 was old state     62
 Root     63 not converged, maximum delta is    0.241866324739991
 Root     64 not converged, maximum delta is    0.193263675779634
 Root     65 not converged, maximum delta is    0.242498284422558
 Root     66 not converged, maximum delta is    0.138565131217547
 New state     67 was old state     68
 Root     67 not converged, maximum delta is    0.296193583306398
 New state     68 was old state     67
 Root     68 not converged, maximum delta is    0.330190705814140
 Root     69 not converged, maximum delta is    0.139130331309742
 New state     70 was old state     72
 Root     70 not converged, maximum delta is    0.384103589934794
 New state     71 was old state     70
 Root     71 not converged, maximum delta is    0.066041816814814
 New state     72 was old state     71
 Root     72 not converged, maximum delta is    0.310136725603706
 Root     73 not converged, maximum delta is    0.282107419163915
 Root     74 not converged, maximum delta is    0.252676519985354
 Root     75 not converged, maximum delta is    0.431221332823226
 New state     76 was old state     77
 Root     76 not converged, maximum delta is    0.301962632872026
 New state     77 was old state     76
 Root     77 not converged, maximum delta is    0.434735179652418
 New state     78 was old state     80
 Root     78 not converged, maximum delta is    0.497192790486726
 New state     79 was old state     78
 Root     79 not converged, maximum delta is    0.280095691707984
 New state     80 was old state     79
 Root     80 not converged, maximum delta is    0.399418565486807
 Root     81 not converged, maximum delta is    0.178264422125496
 Root     82 not converged, maximum delta is    0.509618762008751
 Root     83 not converged, maximum delta is    0.406154971784362
 New state     84 was old state     85
 Root     84 not converged, maximum delta is    0.599959520671627
 New state     85 was old state     84
 Root     85 not converged, maximum delta is    0.396109245192150
 New state     86 was old state     87
 Root     86 not converged, maximum delta is    0.372343815008697
 New state     87 was old state     91
 Root     87 not converged, maximum delta is    0.437276636861514
 New state     88 was old state     86
 Root     88 not converged, maximum delta is    0.161273875731305
 New state     89 was old state     88
 Root     89 not converged, maximum delta is    0.309456903223971
 New state     90 was old state     95
 Root     90 not converged, maximum delta is    0.493846956960745
 New state     91 was old state     89
 Root     91 not converged, maximum delta is    0.324119662649888
 New state     92 was old state     90
 Root     92 not converged, maximum delta is    0.500219884641717
 New state     93 was old state     92
 Root     93 not converged, maximum delta is    0.268717352942928
 New state     94 was old state     93
 Root     94 not converged, maximum delta is    0.487905138693857
 New state     95 was old state     94
 Root     95 not converged, maximum delta is    0.271922844729474
 New state     96 was old state     99
 Root     96 not converged, maximum delta is    0.286053487558990
 Root     97 not converged, maximum delta is    0.499600295360663
 New state     98 was old state     96
 Root     98 not converged, maximum delta is    0.274220802975697
 New state     99 was old state     98
 Root     99 not converged, maximum delta is    0.314605924254778
 New state    100 was old state    104
 Root    100 not converged, maximum delta is    0.348391741556706
 Excitation Energies [eV] at current iteration:
 Root      1 :     5.216487259671905   Change is   -0.070765435146278
 Root      2 :     5.532998346734932   Change is   -0.038039664459291
 Root      3 :     5.597116444017836   Change is   -0.023227053517200
 Root      4 :     5.833193528376325   Change is   -0.524766442776314
 Root      5 :     5.909720976029383   Change is   -0.011471573483847
 Root      6 :     6.143527843639429   Change is   -0.149058038060396
 Root      7 :     6.177735281439721   Change is   -0.004006058660112
 Root      8 :     6.207417719879810   Change is   -0.011722524119423
 Root      9 :     6.348954004382909   Change is   -0.093795551508617
 Root     10 :     6.389982140533148   Change is   -0.048943755705547
 Root     11 :     6.394716908939760   Change is   -0.124383054127056
 Root     12 :     6.440606199175628   Change is   -0.115853390610614
 Root     13 :     6.515650967802913   Change is   -0.085848381349183
 Root     14 :     6.554183000906228   Change is   -0.093494524197029
 Root     15 :     6.574010894205575   Change is   -0.222594761454504
 Root     16 :     6.650516134186186   Change is   -0.024283751103472
 Root     17 :     6.686298070252588   Change is   -0.020472851666423
 Root     18 :     6.707027293906777   Change is   -0.291196454521292
 Root     19 :     6.777023818175954   Change is   -0.123801109943747
 Root     20 :     6.810976218150588   Change is   -0.022693730351798
 Root     21 :     6.817126021485605   Change is   -0.044370056555467
 Root     22 :     6.884892760601489   Change is    0.003235961030264
 Root     23 :     6.888987940205410   Change is   -0.078440425373681
 Root     24 :     6.959690850440024   Change is   -0.164526490690292
 Root     25 :     7.026204738711729   Change is   -0.015061418694398
 Root     26 :     7.031988692342963   Change is   -0.023678046750099
 Root     27 :     7.036667919327136   Change is   -0.013751276199238
 Root     28 :     7.044099399961953   Change is   -0.026638815776999
 Root     29 :     7.079250243522758   Change is   -0.017004097872282
 Root     30 :     7.085748067476344   Change is   -0.059340231533974
 Root     31 :     7.104109325122386   Change is   -0.071389096510745
 Root     32 :     7.137295844150799   Change is   -0.093693835202368
 Root     33 :     7.154759740374553   Change is   -0.051740352625567
 Root     34 :     7.199177388487758   Change is   -0.096366080764094
 Root     35 :     7.277593733142978   Change is   -0.140910603130033
 Root     36 :     7.291192388812641   Change is   -0.022850821543187
 Root     37 :     7.325679026125975   Change is   -0.016990997204975
 Root     38 :     7.380163481215844   Change is   -0.010798984374822
 Root     39 :     7.434915487857197   Change is   -0.022521807276954
 Root     40 :     7.444811415744893   Change is   -0.047790443543273
 Root     41 :     7.463308551218668   Change is   -0.018755182489343
 Root     42 :     7.482566470789155   Change is   -0.023708389580154
 Root     43 :     7.490730364907161   Change is   -0.031338760862004
 Root     44 :     7.509114727480242   Change is   -0.089083885316924
 Root     45 :     7.553538669107080   Change is   -0.111250929761120
 Root     46 :     7.564065713710323   Change is   -0.045124636197485
 Root     47 :     7.579051868083304   Change is   -0.016463651560015
 Root     48 :     7.592752675880775   Change is   -0.033178621266402
 Root     49 :     7.610642822718538   Change is   -0.066458222837785
 Root     50 :     7.628039587018285   Change is   -0.060175464829230
 Root     51 :     7.647397326395931   Change is   -0.008413864255042
 Root     52 :     7.670352710006287   Change is   -0.110440400916584
 Root     53 :     7.673358989845822   Change is   -0.038632099135780
 Root     54 :     7.681679257314171   Change is   -0.052791419433787
[...]
     12  -0.745923D+00 -0.484389D-01  0.484134D+00 -0.411541D+00  0.539503D+00
     13  -0.180239D+00 -0.156428D-01 -0.535883D-01 -0.194149D+00  0.185260D+00
     14  -0.618304D-01  0.207272D+00  0.161145D+00  0.162243D+00  0.181375D-01
     15  -0.474946D-01  0.110032D-02 -0.134965D-01  0.103993D+00 -0.722013D-01
     16  -0.287996D+00  0.176676D+00  0.295761D+00 -0.259684D+00  0.324673D+00
                36            37            38            39            40 
      1  -0.613942D+03 -0.613941D+03 -0.613939D+03 -0.613937D+03 -0.613936D+03
      2   0.851823D-01 -0.227234D-01 -0.902922D-01  0.133333D+00 -0.354398D-01
      3   0.737141D-01  0.189371D-01  0.149185D+00  0.393986D-01  0.449575D-01
      4  -0.181607D+00 -0.396672D-01 -0.768252D-01  0.418157D-01 -0.147759D+00
      5  -0.227468D-01  0.565217D-02  0.234375D-01 -0.351916D-01  0.863503D-02
      6  -0.192322D-01 -0.557817D-02 -0.391309D-01 -0.101888D-01 -0.127583D-01
      7   0.486207D-01  0.108127D-01  0.202519D-01 -0.102665D-01  0.407309D-01
      8  -0.157044D+00 -0.352936D+00 -0.336353D-01  0.153075D+00  0.111709D+00
      9   0.367058D-01  0.310054D+00 -0.747266D-01 -0.550107D+00 -0.319238D+00
     10  -0.300554D+00 -0.220174D+00  0.373775D-01  0.169416D+00  0.264172D-01
     11  -0.109464D+00  0.174256D+00  0.141208D+00  0.251854D+00 -0.924390D-01
     12  -0.942123D-01 -0.135609D+00  0.365178D+00 -0.341400D+00 -0.253725D+00
     13  -0.107225D+00 -0.130473D+00 -0.502846D-02 -0.441520D+00  0.336738D+00
     14   0.168915D+00  0.273626D+00 -0.207332D+00 -0.284727D-01 -0.694552D-01
     15   0.979001D-01  0.906336D-01 -0.242160D-01 -0.728161D-01 -0.331867D-01
     16  -0.297660D+00 -0.194212D+00 -0.784097D-01 -0.218114D+00  0.294198D-01
                41            42            43            44            45 
      1  -0.613936D+03 -0.613935D+03 -0.613935D+03 -0.613934D+03 -0.613932D+03
      2  -0.153908D+00 -0.893156D-01 -0.317888D+00 -0.244602D+00  0.371039D-01
      3   0.163122D-01  0.581317D-01  0.367244D+00 -0.172714D-01 -0.183636D+00
      4   0.441822D-01  0.244142D+00  0.215166D+00  0.690216D-01 -0.231639D+00
      5   0.428346D-01  0.251277D-01  0.874537D-01  0.667803D-01 -0.943407D-02
      6  -0.435488D-02 -0.165610D-01 -0.100526D+00  0.491885D-02  0.520598D-01
      7  -0.118401D-01 -0.659218D-01 -0.592215D-01 -0.198628D-01  0.651842D-01
      8  -0.330030D+00 -0.134844D+00 -0.384972D+00 -0.444582D+00  0.326135D-01
      9  -0.655973D-01 -0.176105D-01  0.103992D-01  0.551111D-01 -0.159785D+00
     10   0.176325D+00 -0.370788D+00 -0.494566D+00 -0.427076D+00  0.694062D-01
     11   0.249831D+00  0.305074D+00  0.117676D+00  0.128673D+00 -0.846264D-02
     12  -0.760929D-01 -0.614813D+00 -0.878001D+00 -0.788107D-01 -0.439285D-01
     13  -0.615914D-01 -0.131564D-01 -0.389306D-01 -0.494224D-01  0.383126D-01
     14  -0.617350D-01  0.155801D+00  0.379278D+00  0.474078D+00 -0.569960D-01
     15   0.489212D-01  0.273363D-01 -0.103281D+00  0.220646D-01 -0.954661D-01
     16  -0.120070D+00 -0.262977D+00 -0.212885D+00 -0.350962D+00  0.110238D+00
                46            47            48            49            50 
      1  -0.613932D+03 -0.613931D+03 -0.613931D+03 -0.613930D+03 -0.613930D+03
      2  -0.132181D+00  0.425913D-01 -0.363671D-01 -0.520747D-01  0.313171D-01
      3  -0.328318D-01  0.653940D-01 -0.290703D-01  0.252574D-01  0.963296D-01
      4  -0.837798D-01  0.905638D-01  0.108041D+00  0.104808D+00 -0.106815D+00
      5   0.368301D-01 -0.118693D-01  0.997343D-02  0.141106D-01 -0.948293D-02
      6   0.101835D-01 -0.189633D-01  0.669233D-02 -0.574054D-02 -0.268169D-01
      7   0.233468D-01 -0.250897D-01 -0.298623D-01 -0.294074D-01  0.302957D-01
      8  -0.133015D-02  0.124825D+00  0.122778D+00 -0.399261D-01 -0.533910D-01
      9  -0.127035D+00 -0.117642D+00  0.183786D+00 -0.197264D-01  0.172250D+00
     10   0.202240D+00 -0.690740D-01 -0.187161D+00 -0.310371D-01 -0.183581D+00
     11  -0.422612D-01 -0.270897D-01  0.179842D+00 -0.862809D-02  0.412370D-01
     12   0.237460D+00 -0.145900D+00 -0.461186D+00 -0.460527D+00 -0.286851D+00
     13  -0.178974D-01  0.167128D+00 -0.306563D-02  0.131126D-02 -0.234131D+00
     14  -0.730124D-01  0.124717D+00 -0.893939D-01  0.825549D-01 -0.177843D-01
     15  -0.823556D-01  0.875018D-02 -0.203521D-01  0.142774D+00  0.538750D-02
     16   0.145581D-01  0.177883D+00 -0.113766D+00 -0.127230D+00 -0.163459D+00
                51            52            53            54            55 
      1  -0.613929D+03 -0.613928D+03 -0.613928D+03 -0.613928D+03 -0.613926D+03
      2   0.152860D+00 -0.170858D+00 -0.125406D+00 -0.164064D+00 -0.676592D-01
      3   0.155665D+00  0.477253D-01  0.197272D+00 -0.152851D+00 -0.472101D+00
      4  -0.100978D+00 -0.804692D-01  0.504953D-01 -0.231201D-01  0.102963D+00
      5  -0.429666D-01  0.498864D-01  0.354509D-01  0.465175D-01  0.184973D-01
      6  -0.440822D-01 -0.132172D-01 -0.566808D-01  0.431317D-01  0.133994D+00
      7   0.288781D-01  0.231011D-01 -0.144602D-01  0.802686D-02 -0.303089D-01
      8  -0.193610D+00 -0.116627D+00  0.108055D+00  0.147913D+00  0.243494D-01
      9   0.154803D+00 -0.815883D+00  0.195529D+00 -0.489970D+00 -0.157601D+00
     10   0.633288D-01  0.171793D+00 -0.174296D+00  0.105905D+00  0.424246D-01
     11   0.314310D+00  0.285592D+00 -0.128684D+00  0.173078D+00 -0.662937D-01
     12  -0.140620D+00 -0.141372D-01 -0.391377D+00  0.244196D+00  0.792754D+00
     13  -0.560226D-01 -0.908616D-01 -0.445899D+00 -0.247378D+00  0.346131D-01
     14   0.804586D-01  0.204391D+00 -0.134302D+00 -0.671121D-01  0.124040D+00
     15   0.470086D-01  0.325011D-01  0.323413D-01 -0.823955D-01 -0.154357D-01
     16  -0.297661D-02  0.126721D+00  0.942264D-01  0.123759D-01  0.111511D-01
                56            57            58            59            60 
      1  -0.613924D+03 -0.613923D+03 -0.613922D+03 -0.613922D+03 -0.613921D+03
      2  -0.439937D-01 -0.171477D+00 -0.341349D-01 -0.358626D-01  0.198017D+00
      3  -0.804125D-01  0.262829D+00  0.332501D+00  0.350501D+00 -0.295081D+00
      4  -0.510557D-01 -0.266919D-02 -0.531449D-01 -0.711523D-01  0.118322D-01
      5   0.137789D-01  0.482944D-01  0.103799D-01  0.109354D-01 -0.561825D-01
      6   0.240852D-01 -0.737588D-01 -0.947983D-01 -0.101106D+00  0.863628D-01
      7   0.157098D-01  0.104081D-02  0.166081D-01  0.210773D-01 -0.407100D-02
      8  -0.423270D-01 -0.246654D-02  0.350974D+00  0.276251D+00  0.144305D+00
      9  -0.505917D-01 -0.177046D+00 -0.114432D+00 -0.148606D+00 -0.285500D+00
     10   0.311887D+00  0.859231D-01  0.204297D-01  0.137555D+00  0.583959D+00
     11  -0.298177D-02  0.490541D-01  0.919104D-01  0.361775D-01 -0.121038D+00
     12   0.104233D+00 -0.328097D+00 -0.863132D+00 -0.928949D+00  0.659525D+00
     13   0.243739D-01  0.695754D-01  0.111420D+00 -0.198252D+00 -0.705647D-01
     14   0.151882D-02 -0.137511D+00 -0.533077D-01 -0.468793D+00  0.771972D-01
     15   0.165459D-01  0.685367D-01 -0.160764D-01 -0.161574D+00  0.109274D+00
     16  -0.139076D+00  0.643782D-01 -0.514959D-01 -0.147495D+00  0.240469D-01
                61            62            63            64            65 
      1  -0.613920D+03 -0.613919D+03 -0.613916D+03 -0.613915D+03 -0.613914D+03
      2  -0.137882D+00  0.735143D-01  0.459480D-01 -0.273271D+00 -0.499447D-01
      3   0.902754D-01 -0.588817D+00 -0.507361D-01  0.325067D+00  0.897451D-01
      4  -0.187236D+00  0.117571D+00  0.240406D-01  0.216786D+00  0.217351D-01
      5   0.398827D-01 -0.222681D-01 -0.139483D-01  0.800914D-01  0.125271D-01
      6  -0.269388D-01  0.172972D+00  0.139920D-01 -0.951441D-01 -0.249945D-01
      7   0.536883D-01 -0.341066D-01 -0.634638D-02 -0.631091D-01 -0.620781D-02
      8   0.323983D+00 -0.411227D+00  0.709643D-01 -0.505769D+00  0.602279D-01
      9  -0.151609D+00  0.438585D-02  0.203432D-02  0.103201D+00 -0.653481D-01
     10  -0.438685D-01  0.830140D-01 -0.753010D-01 -0.564947D+00  0.178064D+00
     11  -0.962546D-01 -0.153883D-01 -0.489439D-01  0.369360D+00 -0.137381D+00
     12  -0.524143D+00  0.118987D+01 -0.486195D+00 -0.111237D+01  0.552515D+00
     13  -0.202477D+00 -0.449897D+00  0.134673D+00  0.266547D-01  0.932079D-01
     14  -0.698856D-01 -0.105176D+00  0.793479D-01  0.224006D+00 -0.230378D+00
     15  -0.453424D-01 -0.127615D+00 -0.198473D-01 -0.260120D+00  0.162427D-01
     16  -0.442790D-02 -0.178612D+00  0.120055D+00 -0.393163D+00  0.195244D+00
                66            67            68            69            70 
      1  -0.613913D+03 -0.613912D+03 -0.613911D+03 -0.613911D+03 -0.613910D+03
      2   0.451492D-01 -0.164588D+00 -0.552909D-01 -0.356432D-01 -0.624929D-01
      3  -0.284085D-01 -0.747780D-01  0.766695D-01 -0.144572D+00 -0.162467D+00
      4   0.262862D+00 -0.823699D-01  0.368795D-01 -0.132613D+00  0.527109D-01
      5  -0.132705D-01  0.476611D-01  0.169565D-01  0.100528D-01  0.173339D-01
      6   0.717117D-02  0.210697D-01 -0.220873D-01  0.420693D-01  0.504305D-01
      7  -0.775020D-01  0.233420D-01 -0.112825D-01  0.395744D-01 -0.163874D-01
      8  -0.455132D+00  0.169516D-01  0.177647D+00  0.198642D+00  0.145420D+00
      9   0.604070D-01  0.101497D+00 -0.168918D+00 -0.148712D+00  0.817857D-01
     10   0.821872D-01 -0.337027D+00 -0.299776D+00 -0.428082D-01 -0.106021D+00
     11   0.258771D-01  0.312244D-01  0.218087D+00 -0.920571D-01  0.196555D+00
     12  -0.144142D-01 -0.280220D+00 -0.115548D-01  0.235230D+00  0.547410D+00
     13   0.115916D+00 -0.470464D-01 -0.291197D+00  0.184594D-01  0.151753D+00
     14   0.177207D+00  0.473620D-01  0.205549D+00  0.102201D+00  0.214003D+00
     15   0.736876D-01 -0.306855D-01  0.114809D-01 -0.983149D-02 -0.155008D+00
     16  -0.101294D+00 -0.152689D+00  0.619603D-01  0.748713D-01  0.195987D+00
                71            72            73            74            75 
      1  -0.613909D+03 -0.613908D+03 -0.613905D+03 -0.613905D+03 -0.613904D+03
      2  -0.159763D+00  0.115517D+00  0.212768D+00  0.144156D+00  0.374479D-01
      3   0.578159D-01 -0.594065D+00  0.368838D-01 -0.160752D+00  0.466466D+00
      4  -0.456032D-01  0.762314D-01  0.523676D-01 -0.530885D-01 -0.179818D+00
      5   0.478254D-01 -0.338032D-01 -0.638090D-01 -0.454044D-01 -0.118097D-01
      6  -0.168351D-01  0.180110D+00 -0.114711D-01  0.482043D-01 -0.142401D+00
      7   0.134010D-01 -0.224645D-01 -0.168554D-01  0.175533D-01  0.558896D-01
      8  -0.538171D-01 -0.193504D+00 -0.184946D-01 -0.308393D+00  0.772367D+00
      9   0.340288D+00 -0.105549D-01 -0.465644D-02  0.704376D+00  0.235194D+00
     10  -0.266661D+00  0.471781D+00  0.662939D-01  0.696225D+00  0.277021D+00
     11   0.192581D+00 -0.460976D+00 -0.251830D+00  0.263567D+00  0.308668D+00
     12  -0.825909D-01  0.136871D+01 -0.431474D-01  0.904609D+00 -0.989678D+00
     13   0.422555D-01  0.836829D-01  0.111046D+00 -0.581463D+00  0.735003D-03
     14   0.192499D+00 -0.280691D+00 -0.440407D+00 -0.115764D+00 -0.980677D-01
     15   0.190606D+00 -0.115089D+00  0.849493D-01 -0.248314D+00 -0.121121D-01
     16  -0.905340D-01  0.108339D+00 -0.557874D-01  0.162656D+00  0.288141D+00
                76            77            78            79            80 
      1  -0.613904D+03 -0.613903D+03 -0.613903D+03 -0.613900D+03 -0.613899D+03
      2   0.508310D-01  0.283329D-01  0.105528D+00  0.144203D+00 -0.105153D+00
      3   0.138395D+00  0.842996D-01 -0.274197D+00 -0.211944D+00 -0.105810D+00
      4  -0.158453D+00  0.344315D-01  0.185154D+00 -0.278019D-01  0.880015D-01
      5  -0.153916D-01 -0.796789D-02 -0.309084D-01 -0.425848D-01  0.330939D-01
      6  -0.418755D-01 -0.267535D-01  0.834404D-01  0.647316D-01  0.338751D-01
      7   0.481245D-01 -0.122121D-01 -0.568987D-01  0.951101D-02 -0.274983D-01
      8   0.478061D+00 -0.188928D+00  0.579467D-01  0.146954D+00 -0.197589D+00
      9  -0.417212D+00  0.154179D+00 -0.367458D+00  0.189877D+00 -0.458800D-01
     10  -0.427876D-01  0.332732D-01 -0.503578D+00 -0.139886D+00  0.159556D+00
     11  -0.107430D+00  0.547552D-01 -0.166492D+00 -0.188992D+00 -0.589428D-01
     12  -0.425183D+00 -0.349303D+00  0.203255D+00 -0.384981D+00  0.316285D+00
     13   0.131867D+00 -0.658204D-01  0.107825D+00  0.149522D+00 -0.982957D-01
     14  -0.110479D+00  0.631017D-01  0.150320D+00  0.529713D+00 -0.245994D+00
     15   0.163613D+00  0.321790D-01  0.107543D+00 -0.345433D-01 -0.114149D+00
     16   0.253637D+00 -0.959833D-01  0.234789D-01  0.335451D+00 -0.380595D-01
                81            82            83            84            85 
      1  -0.613898D+03 -0.613898D+03 -0.613898D+03 -0.613898D+03 -0.613897D+03
      2   0.225141D+00  0.178461D+00 -0.388705D-01  0.708279D-02 -0.193161D+00
      3  -0.584491D-01 -0.256322D+00  0.571500D-01  0.155894D+00  0.212665D+00
      4  -0.152904D+00  0.355628D+00  0.630553D-01  0.686423D-01 -0.792865D-01
      5  -0.689103D-01 -0.551480D-01  0.127053D-01 -0.334189D-02  0.618227D-01
      6   0.188844D-01  0.800341D-01 -0.167840D-01 -0.475257D-01 -0.662417D-01
      7   0.465013D-01 -0.111215D+00 -0.195599D-01 -0.214746D-01  0.237575D-01
      8   0.177155D+00 -0.940700D-02 -0.531328D+00 -0.319858D+00  0.157019D-01
      9   0.435604D+00 -0.307206D-01  0.433414D-01 -0.140411D+00 -0.220776D+00
     10  -0.151542D+00 -0.468985D+00  0.214499D-02 -0.262104D-01 -0.191113D+00
     11   0.327674D+00  0.318541D+00 -0.654850D-01  0.229649D+00 -0.282184D+00
     12  -0.544327D-02 -0.799791D+00 -0.175655D-01 -0.369117D+00  0.265354D+00
     13  -0.429728D+00 -0.893114D-01 -0.282524D+00 -0.639660D-01 -0.231346D+00
     14  -0.105700D+00 -0.810221D-01  0.162858D+00  0.158822D+00 -0.313309D+00
     15   0.112340D+00  0.361381D+00 -0.224919D+00  0.610636D-01 -0.273963D+00
     16  -0.105609D+00 -0.414405D+00 -0.306230D+00 -0.234808D+00 -0.505152D-01
                86            87            88            89            90 
      1  -0.613897D+03 -0.613896D+03 -0.613895D+03 -0.613895D+03 -0.613894D+03
      2  -0.554086D-01 -0.268344D-01 -0.488555D-01  0.309969D-01  0.852763D-01
      3  -0.268450D+00 -0.739503D-01 -0.121463D+00 -0.110669D+00  0.213311D+00
      4  -0.274925D-01  0.433107D-01 -0.810629D-01  0.117422D+00 -0.998329D-01
      5   0.157053D-01  0.752946D-02  0.162565D-01 -0.908199D-02 -0.275061D-01
      6   0.844243D-01  0.223516D-01  0.385205D-01  0.350820D-01 -0.680714D-01
      7   0.990312D-02 -0.130052D-01  0.248411D-01 -0.366790D-01  0.327082D-01
      8   0.856189D-01 -0.232808D+00 -0.205163D+00 -0.484155D+00 -0.327376D-01
      9   0.120413D+00  0.296262D+00 -0.728427D-01 -0.109429D+00 -0.483072D-01
     10   0.153049D+00 -0.522005D-01 -0.151868D+00  0.114344D+00  0.220110D+00
     11  -0.703541D-01 -0.468886D+00 -0.203150D+00 -0.550471D-01 -0.928092D-02
     12   0.741341D+00  0.281931D+00  0.314067D+00  0.408355D+00 -0.519450D+00
     13  -0.227177D-01 -0.450159D+00  0.467866D+00 -0.112127D+00  0.266401D+00
     14  -0.258364D+00  0.471896D-01  0.146210D+00  0.768287D-01 -0.113752D-01
     15  -0.173863D+00 -0.319741D+00  0.749340D-01 -0.135892D+00  0.111292D+00
     16   0.280106D+00 -0.501525D-01  0.206439D+00 -0.304088D+00  0.266424D+00
                91            92            93            94            95 
      1  -0.613893D+03 -0.613893D+03 -0.613893D+03 -0.613892D+03 -0.613891D+03
      2  -0.156991D+00  0.428951D-01  0.114508D+00 -0.175332D+00 -0.253894D+00
      3   0.219936D+00 -0.605266D-01  0.216567D+00  0.254083D-01 -0.606006D-01
      4   0.199741D+00 -0.712319D-01  0.161774D+00  0.166081D+00  0.288263D+00
      5   0.494596D-01 -0.132513D-01 -0.358928D-01  0.553275D-01  0.810786D-01
      6  -0.695241D-01  0.187676D-01 -0.679996D-01 -0.876756D-02  0.187209D-01
      7  -0.632056D-01  0.233505D-01 -0.502720D-01 -0.524398D-01 -0.919692D-01
      8  -0.532167D+00  0.543069D-01  0.202012D+00 -0.107008D+00 -0.739870D+00
      9   0.376278D+00 -0.235587D+00 -0.309729D+00 -0.221112D+00 -0.312498D-01
     10  -0.472102D+00  0.231645D+00 -0.241461D+00 -0.292253D+00 -0.601497D+00
     11   0.833099D-01 -0.668854D-01  0.184331D+00  0.175814D+00 -0.135711D+00
     12  -0.512238D+00  0.332710D+00 -0.423770D+00  0.134234D+00 -0.166005D+00
     13   0.295228D+00  0.277339D+00 -0.189288D+00 -0.108327D+00 -0.146307D+00
     14   0.457054D+00 -0.313367D-02 -0.609967D-01  0.391086D+00  0.276598D+00
     15   0.171620D+00  0.291476D+00 -0.161611D-01 -0.217411D-02 -0.489809D-01
     16  -0.249331D+00  0.321798D+00 -0.319262D+00 -0.150118D+00 -0.743344D+00
                96            97            98            99           100 
      1  -0.613891D+03 -0.613890D+03 -0.613890D+03 -0.613890D+03 -0.613889D+03
      2  -0.287950D+00 -0.906806D-01 -0.107021D-01 -0.797829D-02  0.291902D-01
      3   0.455944D+00  0.153466D+00  0.423834D-01  0.132483D-01 -0.214374D+00
      4   0.493246D-01  0.765512D-01  0.469752D-02 -0.111213D+00  0.243112D-01
      5   0.923311D-01  0.279816D-01  0.289132D-02  0.239249D-02 -0.905488D-02
      6  -0.145843D+00 -0.468360D-01 -0.134609D-01 -0.275445D-02  0.692261D-01
      7  -0.170234D-01 -0.249073D-01 -0.122532D-02  0.348514D-01 -0.812177D-02
      8   0.220222D-01 -0.206754D+00  0.293300D+00  0.370804D+00 -0.261764D+00
      9   0.142130D+00 -0.161098D-01  0.231814D+00 -0.490942D-02  0.101844D+00
     10  -0.874551D+00  0.364215D-01 -0.151265D+00 -0.966614D-01 -0.169809D-01
     11  -0.199021D+00 -0.180193D+00  0.197671D+00 -0.308764D+00 -0.941272D-01
     12  -0.809455D+00  0.535859D+00 -0.288247D+00  0.294463D+00  0.849637D+00
     13   0.703862D-01 -0.939215D-01 -0.976042D-01 -0.163920D+00 -0.358542D+00
     14   0.631312D+00 -0.500719D-01 -0.201096D+00 -0.179015D+00 -0.362187D-01
     15   0.223648D-01 -0.123299D+00 -0.986886D-01 -0.505349D-01 -0.169216D+00
     16   0.155227D-01 -0.276799D-01 -0.279210D+00 -0.291103D-02 -0.711799D-01
 1\1\GINC-MASTER\SP\RAPFD TD-FC\6-311+G(2d,p)\C13H16N2\GKXIAO\09-Oct-20
 22\0\\#P td=(nstates=100) APFD/6-311+g(2d,p) guess=read geom=allcheck 
 scrf=check\\Structure: CONF_1 Calculation: Opt Freq at APFD/6-311+g(2d
 ,p) level\\0,1\C,0,-0.9196407215,3.054591346,0.538938893\C,0,-1.698811
 226,4.0090437767,1.1349839174\N,0,-1.5207718657,5.1482063241,0.3939687
 675\C,0,-0.658798478,4.852010705,-0.6023210598\N,0,-0.2736721703,3.598
 073207,-0.5482429956\C,0,-0.7345425767,1.6177385865,0.9086704152\C,0,-
 1.2799525716,1.3121472022,2.3061837268\C,0,-1.3519057418,0.6651137906,
 -0.105080409\C,0,-2.4844450863,1.0678748258,-0.8126357131\C,0,-3.11130
 73509,0.2158955444,-1.706763348\C,0,-2.6016145354,-1.0595249736,-1.906
 7122498\C,0,-1.4754147911,-1.4911895168,-1.2131582223\C,0,-0.844328316
 5,-0.6291443834,-0.2974676179\C,0,0.353472058,-1.1457887695,0.45161653
 74\C,0,-0.9478747209,-2.8778881111,-1.4467888073\H,0,0.347452964,1.449
 2829595,0.9175810365\H,0,-2.3458549745,3.9838776273,1.9959336334\H,0,-
 1.9467259603,6.0454125354,0.5662105593\H,0,-0.3432469164,5.5830452525,
 -1.3318237214\H,0,-1.0939751588,0.2697681026,2.5729488711\H,0,-2.36136
 35905,1.4718725512,2.3394868443\H,0,-0.8141187494,1.9503300023,3.06181
 17595\H,0,-2.8700139093,2.0706920285,-0.6582564163\H,0,-3.9913927189,0
 .5453720064,-2.2506210248\H,0,-3.0824781555,-1.733025127,-2.6105880203
 \H,0,1.1383620538,-1.4726555994,-0.2375719456\H,0,0.7910439656,-0.4096
 40914,1.1222546004\H,0,0.0874760301,-2.0188874482,1.0563810195\H,0,0.0
 829569575,-2.8610192169,-1.8152555017\H,0,-0.9390383096,-3.4673671276,
 -0.5242794731\H,0,-1.5566754331,-3.4102171863,-2.1793040553\\Version=E
 S64L-G16RevA.03\State=1-A\HF=-614.2098356\RMSD=6.120e-09\PG=C01 [X(C13
 H16N2)]\\@


 HE WHO LOVES TO READ, AND KNOWS HOW TO REFLECT,
 HAS LAID BY A PERPETUAL FEAST FOR HIS OLD AGE.
 -- UNCLE ESEK, "SCRIBNER'S MONTHLY", SEPT. 1880
 Job cpu time:       1 days  0 hours 33 minutes 42.3 seconds.
 Elapsed time:       0 days  1 hours  1 minutes 25.7 seconds.
 File lengths (MBytes):  RWF=   7751 Int=      0 D2E=      0 Chk=    719 Scr=      1
 Normal termination of Gaussian 16 at Sun Oct  9 18:19:04 2022.
