 Entering Gaussian System, Link 0=g16
 Input=CONF_01_VCD.com
 Output=CONF_01_VCD.log
 Initial command:
 /public/gkxiao/software/g16/l1.exe "/home/gkxiao/tmp/Gau-563562.inp" -scrdir="/home/gkxiao/tmp/"
 Default is to use a total of  24 processors:
                               24 via shared-memory
                                1 via Linda
 Entering Link 1 = /public/gkxiao/software/g16/l1.exe PID=    563564.
  
 Copyright (c) 1988,1990,1992,1993,1995,1998,2003,2009,2016,
            Gaussian, Inc.  All Rights Reserved.
  
 This is part of the Gaussian(R) 16 program.  It is based on
 the Gaussian(R) 09 system (copyright 2009, Gaussian, Inc.),
 the Gaussian(R) 03 system (copyright 2003, Gaussian, Inc.),
 the Gaussian(R) 98 system (copyright 1998, Gaussian, Inc.),
 the Gaussian(R) 94 system (copyright 1995, Gaussian, Inc.),
 the Gaussian 92(TM) system (copyright 1992, Gaussian, Inc.),
 the Gaussian 90(TM) system (copyright 1990, Gaussian, Inc.),
 the Gaussian 88(TM) system (copyright 1988, Gaussian, Inc.),
 the Gaussian 86(TM) system (copyright 1986, Carnegie Mellon
 University), and the Gaussian 82(TM) system (copyright 1983,
 Carnegie Mellon University). Gaussian is a federally registered
 trademark of Gaussian, Inc.
  
 This software contains proprietary and confidential information,
 including trade secrets, belonging to Gaussian, Inc.
  
 This software is provided under written license and may be
 used, copied, transmitted, or stored only in accord with that
 written license.
  
 The following legend is applicable only to US Government
 contracts under FAR:
  
                    RESTRICTED RIGHTS LEGEND
  
 Use, reproduction and disclosure by the US Government is
 subject to restrictions as set forth in subparagraphs (a)
 and (c) of the Commercial Computer Software - Restricted
 Rights clause in FAR 52.227-19.
  
 Gaussian, Inc.
 340 Quinnipiac St., Bldg. 40, Wallingford CT 06492
  
  
 ---------------------------------------------------------------
 Warning -- This program may not be used in any manner that
 competes with the business of Gaussian, Inc. or will provide
 assistance to any competitor of Gaussian, Inc.  The licensee
 of this program is prohibited from giving any competitor of
 Gaussian, Inc. access to this program.  By using this program,
 the user acknowledges that Gaussian, Inc. is engaged in the
 business of creating and licensing software in the field of
 computational chemistry and represents and warrants to the
 licensee that it is not a competitor of Gaussian, Inc. and that
 it will not use this program in any manner prohibited above.
 ---------------------------------------------------------------
  

 Cite this work as:
 Gaussian 16, Revision A.03,
 M. J. Frisch, G. W. Trucks, H. B. Schlegel, G. E. Scuseria, 
 M. A. Robb, J. R. Cheeseman, G. Scalmani, V. Barone, 
 G. A. Petersson, H. Nakatsuji, X. Li, M. Caricato, A. V. Marenich, 
 J. Bloino, B. G. Janesko, R. Gomperts, B. Mennucci, H. P. Hratchian, 
 J. V. Ortiz, A. F. Izmaylov, J. L. Sonnenberg, D. Williams-Young, 
 F. Ding, F. Lipparini, F. Egidi, J. Goings, B. Peng, A. Petrone, 
 T. Henderson, D. Ranasinghe, V. G. Zakrzewski, J. Gao, N. Rega, 
 G. Zheng, W. Liang, M. Hada, M. Ehara, K. Toyota, R. Fukuda, 
 J. Hasegawa, M. Ishida, T. Nakajima, Y. Honda, O. Kitao, H. Nakai, 
 T. Vreven, K. Throssell, J. A. Montgomery, Jr., J. E. Peralta, 
 F. Ogliaro, M. J. Bearpark, J. J. Heyd, E. N. Brothers, K. N. Kudin, 
 V. N. Staroverov, T. A. Keith, R. Kobayashi, J. Normand, 
 K. Raghavachari, A. P. Rendell, J. C. Burant, S. S. Iyengar, 
 J. Tomasi, M. Cossi, J. M. Millam, M. Klene, C. Adamo, R. Cammi, 
 J. W. Ochterski, R. L. Martin, K. Morokuma, O. Farkas, 
 J. B. Foresman, and D. J. Fox, Gaussian, Inc., Wallingford CT, 2016.
 
 ******************************************
 Gaussian 16:  ES64L-G16RevA.03 25-Dec-2016
                 9-Oct-2022 
 ******************************************
 %oldchk=CONF_01.chk
 %chk=CONF_01_VCD.chk
 Copying data from "CONF_01.chk" to current chk file "CONF_01_VCD.chk"
 IOpt=  2 FromEx=T IUOpen= 4 IOptOp= 5 NList=   0 IFRang= 0 IUIn= 4 IUOut= 2.
 ------------------------------------------------------------------
 #P freq=vcd APFD/6-311+G(2d,p) guess=read geom=allcheck scrf=check
 ------------------------------------------------------------------
 1/10=4,29=7,30=1,38=1,40=1/1,3;
 2/12=2,40=1/2;
 3/5=4,6=6,7=112,11=2,14=-4,25=1,30=1,36=2,70=2,71=2,74=-44,116=-2,140=1/1,2,3;
 4/5=1/1;
 5/5=2,38=6,98=1/2;
 8/6=4,10=90,11=11/1;
 10/15=4,46=1/2;
 11/6=1,8=1,9=11,15=111,16=1/1,2,10;
 10/6=1,46=1/2;
 6/7=2,8=2,9=2,10=2,28=1/1;
 7/8=1,10=1,25=1/1,2,3,16;
 1/10=4,30=1/3;
 99//99;
 Leave Link    1 at Sun Oct  9 18:30:07 2022, MaxMem=  3221225472 cpu:               2.0 elap:               0.1
 (Enter /public/gkxiao/software/g16/l101.exe)
 Structure from the checkpoint file:  "CONF_01_VCD.chk"
 -------------------------------------------------------------------
 Structure: CONF_1 Calculation: Opt Freq at APFD/6-311+g(2d,p) level
 -------------------------------------------------------------------
 Charge =  0 Multiplicity = 1
 Redundant internal coordinates found in file.  (old form).
 C,0,-0.9196407215,3.054591346,0.538938893
 C,0,-1.698811226,4.0090437767,1.1349839174
 N,0,-1.5207718657,5.1482063241,0.3939687675
 C,0,-0.658798478,4.852010705,-0.6023210598
 N,0,-0.2736721703,3.598073207,-0.5482429956
 C,0,-0.7345425767,1.6177385865,0.9086704152
 C,0,-1.2799525716,1.3121472022,2.3061837268
 C,0,-1.3519057418,0.6651137906,-0.105080409
 C,0,-2.4844450863,1.0678748258,-0.8126357131
 C,0,-3.1113073509,0.2158955444,-1.706763348
 C,0,-2.6016145354,-1.0595249736,-1.9067122498
 C,0,-1.4754147911,-1.4911895168,-1.2131582223
 C,0,-0.8443283165,-0.6291443834,-0.2974676179
 C,0,0.353472058,-1.1457887695,0.4516165374
 C,0,-0.9478747209,-2.8778881111,-1.4467888073
 H,0,0.347452964,1.4492829595,0.9175810365
 H,0,-2.3458549745,3.9838776273,1.9959336334
 H,0,-1.9467259603,6.0454125354,0.5662105593
 H,0,-0.3432469164,5.5830452525,-1.3318237214
 H,0,-1.0939751588,0.2697681026,2.5729488711
 H,0,-2.3613635905,1.4718725512,2.3394868443
 H,0,-0.8141187494,1.9503300023,3.0618117595
 H,0,-2.8700139093,2.0706920285,-0.6582564163
 H,0,-3.9913927189,0.5453720064,-2.2506210248
 H,0,-3.0824781555,-1.733025127,-2.6105880203
 H,0,1.1383620538,-1.4726555994,-0.2375719456
 H,0,0.7910439656,-0.409640914,1.1222546004
 H,0,0.0874760301,-2.0188874482,1.0563810195
 H,0,0.0829569575,-2.8610192169,-1.8152555017
 H,0,-0.9390383096,-3.4673671276,-0.5242794731
 H,0,-1.5566754331,-3.4102171863,-2.1793040553
 Recover connectivity data from disk.
 ITRead=  0  0  0  0  0  0  0  0  0  0  0  0  0  0  0  0  0  0  0  0
 ITRead=  0  0  0  0  0  0  0  0  0  0  0
 MicOpt= -1 -1 -1 -1 -1 -1 -1 -1 -1 -1 -1 -1 -1 -1 -1 -1 -1 -1 -1 -1
 MicOpt= -1 -1 -1 -1 -1 -1 -1 -1 -1 -1 -1
 NAtoms=     31 NQM=       31 NQMF=       0 NMMI=      0 NMMIF=      0
                NMic=       0 NMicF=      0.
                    Isotopes and Nuclear Properties:
 (Nuclear quadrupole moments (NQMom) in fm**2, nuclear magnetic moments (NMagM)
  in nuclear magnetons)

  Atom         1           2           3           4           5           6           7           8           9          10
 IAtWgt=          12          12          14          12          14          12          12          12          12          12
 AtmWgt=  12.0000000  12.0000000  14.0030740  12.0000000  14.0030740  12.0000000  12.0000000  12.0000000  12.0000000  12.0000000
 NucSpn=           0           0           2           0           2           0           0           0           0           0
 AtZEff=   3.6000000   3.6000000   4.5500000   3.6000000   4.5500000   3.6000000   3.6000000   3.6000000   3.6000000   3.6000000
 NQMom=    0.0000000   0.0000000   2.0440000   0.0000000   2.0440000   0.0000000   0.0000000   0.0000000   0.0000000   0.0000000
 NMagM=    0.0000000   0.0000000   0.4037610   0.0000000   0.4037610   0.0000000   0.0000000   0.0000000   0.0000000   0.0000000
 AtZNuc=   6.0000000   6.0000000   7.0000000   6.0000000   7.0000000   6.0000000   6.0000000   6.0000000   6.0000000   6.0000000

  Atom        11          12          13          14          15          16          17          18          19          20
 IAtWgt=          12          12          12          12          12           1           1           1           1           1
 AtmWgt=  12.0000000  12.0000000  12.0000000  12.0000000  12.0000000   1.0078250   1.0078250   1.0078250   1.0078250   1.0078250
 NucSpn=           0           0           0           0           0           1           1           1           1           1
 AtZEff=   3.6000000   3.6000000   3.6000000   3.6000000   3.6000000   1.0000000   1.0000000   1.0000000   1.0000000   1.0000000
 NQMom=    0.0000000   0.0000000   0.0000000   0.0000000   0.0000000   0.0000000   0.0000000   0.0000000   0.0000000   0.0000000
 NMagM=    0.0000000   0.0000000   0.0000000   0.0000000   0.0000000   2.7928460   2.7928460   2.7928460   2.7928460   2.7928460
 AtZNuc=   6.0000000   6.0000000   6.0000000   6.0000000   6.0000000   1.0000000   1.0000000   1.0000000   1.0000000   1.0000000

  Atom        21          22          23          24          25          26          27          28          29          30
 IAtWgt=           1           1           1           1           1           1           1           1           1           1
 AtmWgt=   1.0078250   1.0078250   1.0078250   1.0078250   1.0078250   1.0078250   1.0078250   1.0078250   1.0078250   1.0078250
 NucSpn=           1           1           1           1           1           1           1           1           1           1
 AtZEff=   1.0000000   1.0000000   1.0000000   1.0000000   1.0000000   1.0000000   1.0000000   1.0000000   1.0000000   1.0000000
 NQMom=    0.0000000   0.0000000   0.0000000   0.0000000   0.0000000   0.0000000   0.0000000   0.0000000   0.0000000   0.0000000
 NMagM=    2.7928460   2.7928460   2.7928460   2.7928460   2.7928460   2.7928460   2.7928460   2.7928460   2.7928460   2.7928460
 AtZNuc=   1.0000000   1.0000000   1.0000000   1.0000000   1.0000000   1.0000000   1.0000000   1.0000000   1.0000000   1.0000000

  Atom        31
 IAtWgt=           1
 AtmWgt=   1.0078250
 NucSpn=           1
 AtZEff=   1.0000000
 NQMom=    0.0000000
 NMagM=    2.7928460
 AtZNuc=   1.0000000
 Leave Link  101 at Sun Oct  9 18:30:08 2022, MaxMem=  3221225472 cpu:              17.4 elap:               0.7
 (Enter /public/gkxiao/software/g16/l103.exe)

 GradGradGradGradGradGradGradGradGradGradGradGradGradGradGradGradGradGrad
 Berny optimization.
 Initialization pass.
                           ----------------------------
                           !    Initial Parameters    !
                           ! (Angstroms and Degrees)  !
 --------------------------                            --------------------------
 ! Name  Definition              Value          Derivative Info.                !
 --------------------------------------------------------------------------------
 ! R1    R(1,2)                  1.3687         calculate D2E/DX2 analytically  !
 ! R2    R(1,5)                  1.3764         calculate D2E/DX2 analytically  !
 ! R3    R(1,6)                  1.4952         calculate D2E/DX2 analytically  !
 ! R4    R(2,3)                  1.3706         calculate D2E/DX2 analytically  !
 ! R5    R(2,17)                 1.0773         calculate D2E/DX2 analytically  !
 ! R6    R(3,4)                  1.3503         calculate D2E/DX2 analytically  !
 ! R7    R(3,18)                 1.008          calculate D2E/DX2 analytically  !
 ! R8    R(4,5)                  1.3129         calculate D2E/DX2 analytically  !
 ! R9    R(4,19)                 1.0799         calculate D2E/DX2 analytically  !
 ! R10   R(6,7)                  1.531          calculate D2E/DX2 analytically  !
 ! R11   R(6,8)                  1.5219         calculate D2E/DX2 analytically  !
 ! R12   R(6,16)                 1.0951         calculate D2E/DX2 analytically  !
 ! R13   R(7,20)                 1.0919         calculate D2E/DX2 analytically  !
 ! R14   R(7,21)                 1.0937         calculate D2E/DX2 analytically  !
 ! R15   R(7,22)                 1.0933         calculate D2E/DX2 analytically  !
 ! R16   R(8,9)                  1.3948         calculate D2E/DX2 analytically  !
 ! R17   R(8,13)                 1.4035         calculate D2E/DX2 analytically  !
 ! R18   R(9,10)                 1.385          calculate D2E/DX2 analytically  !
 ! R19   R(9,23)                 1.0854         calculate D2E/DX2 analytically  !
 ! R20   R(10,11)                1.388          calculate D2E/DX2 analytically  !
 ! R21   R(10,24)                1.0858         calculate D2E/DX2 analytically  !
 ! R22   R(11,12)                1.3913         calculate D2E/DX2 analytically  !
 ! R23   R(11,25)                1.0864         calculate D2E/DX2 analytically  !
 ! R24   R(12,13)                1.4071         calculate D2E/DX2 analytically  !
 ! R25   R(12,15)                1.5019         calculate D2E/DX2 analytically  !
 ! R26   R(13,14)                1.5043         calculate D2E/DX2 analytically  !
 ! R27   R(14,26)                1.0945         calculate D2E/DX2 analytically  !
 ! R28   R(14,27)                1.0877         calculate D2E/DX2 analytically  !
 ! R29   R(14,28)                1.0949         calculate D2E/DX2 analytically  !
 ! R30   R(15,29)                1.0948         calculate D2E/DX2 analytically  !
 ! R31   R(15,30)                1.0948         calculate D2E/DX2 analytically  !
 ! R32   R(15,31)                1.0911         calculate D2E/DX2 analytically  !
 ! A1    A(2,1,5)              109.6202         calculate D2E/DX2 analytically  !
 ! A2    A(2,1,6)              129.2667         calculate D2E/DX2 analytically  !
 ! A3    A(5,1,6)              121.1087         calculate D2E/DX2 analytically  !
 ! A4    A(1,2,3)              105.6762         calculate D2E/DX2 analytically  !
 ! A5    A(1,2,17)             132.3504         calculate D2E/DX2 analytically  !
 ! A6    A(3,2,17)             121.9734         calculate D2E/DX2 analytically  !
 ! A7    A(2,3,4)              107.4286         calculate D2E/DX2 analytically  !
 ! A8    A(2,3,18)             126.3356         calculate D2E/DX2 analytically  !
 ! A9    A(4,3,18)             126.2327         calculate D2E/DX2 analytically  !
 ! A10   A(3,4,5)              111.4924         calculate D2E/DX2 analytically  !
 ! A11   A(3,4,19)             122.4434         calculate D2E/DX2 analytically  !
 ! A12   A(5,4,19)             126.0632         calculate D2E/DX2 analytically  !
 ! A13   A(1,5,4)              105.7826         calculate D2E/DX2 analytically  !
 ! A14   A(1,6,7)              111.9283         calculate D2E/DX2 analytically  !
 ! A15   A(1,6,8)              112.7421         calculate D2E/DX2 analytically  !
 ! A16   A(1,6,16)             105.7931         calculate D2E/DX2 analytically  !
 ! A17   A(7,6,8)              109.79           calculate D2E/DX2 analytically  !
 ! A18   A(7,6,16)             108.2922         calculate D2E/DX2 analytically  !
 ! A19   A(8,6,16)             108.0551         calculate D2E/DX2 analytically  !
 ! A20   A(6,7,20)             110.6636         calculate D2E/DX2 analytically  !
 ! A21   A(6,7,21)             110.5428         calculate D2E/DX2 analytically  !
 ! A22   A(6,7,22)             111.2597         calculate D2E/DX2 analytically  !
 ! A23   A(20,7,21)            107.4814         calculate D2E/DX2 analytically  !
 ! A24   A(20,7,22)            108.4103         calculate D2E/DX2 analytically  !
 ! A25   A(21,7,22)            108.3621         calculate D2E/DX2 analytically  !
 ! A26   A(6,8,9)              119.1119         calculate D2E/DX2 analytically  !
 ! A27   A(6,8,13)             121.4543         calculate D2E/DX2 analytically  !
 ! A28   A(9,8,13)             119.367          calculate D2E/DX2 analytically  !
 ! A29   A(8,9,10)             121.1549         calculate D2E/DX2 analytically  !
 ! A30   A(8,9,23)             118.8856         calculate D2E/DX2 analytically  !
 ! A31   A(10,9,23)            119.9582         calculate D2E/DX2 analytically  !
 ! A32   A(9,10,11)            119.4755         calculate D2E/DX2 analytically  !
 ! A33   A(9,10,24)            120.236          calculate D2E/DX2 analytically  !
 ! A34   A(11,10,24)           120.2878         calculate D2E/DX2 analytically  !
 ! A35   A(10,11,12)           120.7001         calculate D2E/DX2 analytically  !
 ! A36   A(10,11,25)           120.0304         calculate D2E/DX2 analytically  !
 ! A37   A(12,11,25)           119.2695         calculate D2E/DX2 analytically  !
 ! A38   A(11,12,13)           119.8267         calculate D2E/DX2 analytically  !
 ! A39   A(11,12,15)           119.5532         calculate D2E/DX2 analytically  !
 ! A40   A(13,12,15)           120.6197         calculate D2E/DX2 analytically  !
 ! A41   A(8,13,12)            119.4703         calculate D2E/DX2 analytically  !
 ! A42   A(8,13,14)            122.4419         calculate D2E/DX2 analytically  !
 ! A43   A(12,13,14)           118.0855         calculate D2E/DX2 analytically  !
 ! A44   A(13,14,26)           111.1026         calculate D2E/DX2 analytically  !
 ! A45   A(13,14,27)           113.2606         calculate D2E/DX2 analytically  !
 ! A46   A(13,14,28)           110.8235         calculate D2E/DX2 analytically  !
 ! A47   A(26,14,27)           107.57           calculate D2E/DX2 analytically  !
 ! A48   A(26,14,28)           106.4921         calculate D2E/DX2 analytically  !
 ! A49   A(27,14,28)           107.2692         calculate D2E/DX2 analytically  !
 ! A50   A(12,15,29)           111.6436         calculate D2E/DX2 analytically  !
 ! A51   A(12,15,30)           111.6469         calculate D2E/DX2 analytically  !
 ! A52   A(12,15,31)           111.0318         calculate D2E/DX2 analytically  !
 ! A53   A(29,15,30)           106.516          calculate D2E/DX2 analytically  !
 ! A54   A(29,15,31)           107.8732         calculate D2E/DX2 analytically  !
 ! A55   A(30,15,31)           107.9087         calculate D2E/DX2 analytically  !
 ! D1    D(5,1,2,3)              0.0457         calculate D2E/DX2 analytically  !
 ! D2    D(5,1,2,17)          -179.8884         calculate D2E/DX2 analytically  !
 ! D3    D(6,1,2,3)           -179.1907         calculate D2E/DX2 analytically  !
 ! D4    D(6,1,2,17)             0.8752         calculate D2E/DX2 analytically  !
 ! D5    D(2,1,5,4)             -0.0312         calculate D2E/DX2 analytically  !
 ! D6    D(6,1,5,4)            179.2783         calculate D2E/DX2 analytically  !
 ! D7    D(2,1,6,7)            -13.7904         calculate D2E/DX2 analytically  !
 ! D8    D(2,1,6,8)            110.5767         calculate D2E/DX2 analytically  !
 ! D9    D(2,1,6,16)          -131.5316         calculate D2E/DX2 analytically  !
 ! D10   D(5,1,6,7)            167.0497         calculate D2E/DX2 analytically  !
 ! D11   D(5,1,6,8)            -68.5832         calculate D2E/DX2 analytically  !
 ! D12   D(5,1,6,16)            49.3085         calculate D2E/DX2 analytically  !
 ! D13   D(1,2,3,4)             -0.0424         calculate D2E/DX2 analytically  !
 ! D14   D(1,2,3,18)          -179.4341         calculate D2E/DX2 analytically  !
 ! D15   D(17,2,3,4)           179.9002         calculate D2E/DX2 analytically  !
 ! D16   D(17,2,3,18)            0.5085         calculate D2E/DX2 analytically  !
 ! D17   D(2,3,4,5)              0.0249         calculate D2E/DX2 analytically  !
 ! D18   D(2,3,4,19)          -179.6486         calculate D2E/DX2 analytically  !
 ! D19   D(18,3,4,5)           179.4174         calculate D2E/DX2 analytically  !
 ! D20   D(18,3,4,19)           -0.2561         calculate D2E/DX2 analytically  !
 ! D21   D(3,4,5,1)              0.0036         calculate D2E/DX2 analytically  !
 ! D22   D(19,4,5,1)           179.6628         calculate D2E/DX2 analytically  !
 ! D23   D(1,6,7,20)          -177.4443         calculate D2E/DX2 analytically  !
 ! D24   D(1,6,7,21)            63.597          calculate D2E/DX2 analytically  !
 ! D25   D(1,6,7,22)           -56.8526         calculate D2E/DX2 analytically  !
 ! D26   D(8,6,7,20)            56.5585         calculate D2E/DX2 analytically  !
 ! D27   D(8,6,7,21)           -62.4002         calculate D2E/DX2 analytically  !
 ! D28   D(8,6,7,22)           177.1502         calculate D2E/DX2 analytically  !
 ! D29   D(16,6,7,20)          -61.2075         calculate D2E/DX2 analytically  !
 ! D30   D(16,6,7,21)          179.8338         calculate D2E/DX2 analytically  !
 ! D31   D(16,6,7,22)           59.3842         calculate D2E/DX2 analytically  !
 ! D32   D(1,6,8,9)            -30.8786         calculate D2E/DX2 analytically  !
 ! D33   D(1,6,8,13)           152.1116         calculate D2E/DX2 analytically  !
 ! D34   D(7,6,8,9)             94.6544         calculate D2E/DX2 analytically  !
 ! D35   D(7,6,8,13)           -82.3555         calculate D2E/DX2 analytically  !
 ! D36   D(16,6,8,9)          -147.4322         calculate D2E/DX2 analytically  !
 ! D37   D(16,6,8,13)           35.5579         calculate D2E/DX2 analytically  !
 ! D38   D(6,8,9,10)          -177.458          calculate D2E/DX2 analytically  !
 ! D39   D(6,8,9,23)             2.9607         calculate D2E/DX2 analytically  !
 ! D40   D(13,8,9,10)           -0.3848         calculate D2E/DX2 analytically  !
 ! D41   D(13,8,9,23)         -179.9662         calculate D2E/DX2 analytically  !
 ! D42   D(6,8,13,12)          177.8461         calculate D2E/DX2 analytically  !
 ! D43   D(6,8,13,14)           -1.588          calculate D2E/DX2 analytically  !
 ! D44   D(9,8,13,12)            0.8437         calculate D2E/DX2 analytically  !
 ! D45   D(9,8,13,14)         -178.5904         calculate D2E/DX2 analytically  !
 ! D46   D(8,9,10,11)           -0.2404         calculate D2E/DX2 analytically  !
 ! D47   D(8,9,10,24)         -179.922          calculate D2E/DX2 analytically  !
 ! D48   D(23,9,10,11)         179.3365         calculate D2E/DX2 analytically  !
 ! D49   D(23,9,10,24)          -0.3451         calculate D2E/DX2 analytically  !
 ! D50   D(9,10,11,12)           0.4022         calculate D2E/DX2 analytically  !
 ! D51   D(9,10,11,25)        -179.6139         calculate D2E/DX2 analytically  !
 ! D52   D(24,10,11,12)       -179.9164         calculate D2E/DX2 analytically  !
 ! D53   D(24,10,11,25)          0.0675         calculate D2E/DX2 analytically  !
 ! D54   D(10,11,12,13)          0.0636         calculate D2E/DX2 analytically  !
 ! D55   D(10,11,12,15)        179.8389         calculate D2E/DX2 analytically  !
 ! D56   D(25,11,12,13)       -179.9205         calculate D2E/DX2 analytically  !
 ! D57   D(25,11,12,15)         -0.1451         calculate D2E/DX2 analytically  !
 ! D58   D(11,12,13,8)          -0.6884         calculate D2E/DX2 analytically  !
 ! D59   D(11,12,13,14)        178.7703         calculate D2E/DX2 analytically  !
 ! D60   D(15,12,13,8)         179.5387         calculate D2E/DX2 analytically  !
 ! D61   D(15,12,13,14)         -1.0026         calculate D2E/DX2 analytically  !
 ! D62   D(11,12,15,29)        120.2779         calculate D2E/DX2 analytically  !
 ! D63   D(11,12,15,30)       -120.6089         calculate D2E/DX2 analytically  !
 ! D64   D(11,12,15,31)         -0.1418         calculate D2E/DX2 analytically  !
 ! D65   D(13,12,15,29)        -59.9485         calculate D2E/DX2 analytically  !
 ! D66   D(13,12,15,30)         59.1646         calculate D2E/DX2 analytically  !
 ! D67   D(13,12,15,31)        179.6317         calculate D2E/DX2 analytically  !
 ! D68   D(8,13,14,26)        -122.9246         calculate D2E/DX2 analytically  !
 ! D69   D(8,13,14,27)          -1.7206         calculate D2E/DX2 analytically  !
 ! D70   D(8,13,14,28)         118.8896         calculate D2E/DX2 analytically  !
 ! D71   D(12,13,14,26)         57.6338         calculate D2E/DX2 analytically  !
 ! D72   D(12,13,14,27)        178.8378         calculate D2E/DX2 analytically  !
 ! D73   D(12,13,14,28)        -60.552          calculate D2E/DX2 analytically  !
 --------------------------------------------------------------------------------
 Trust Radius=3.00D-01 FncErr=1.00D-07 GrdErr=1.00D-07 EigMax=2.50D+02 EigMin=1.00D-04
 Number of steps in this run=      2 maximum allowed number of steps=      2.
 GradGradGradGradGradGradGradGradGradGradGradGradGradGradGradGradGradGrad

 Leave Link  103 at Sun Oct  9 18:30:08 2022, MaxMem=  3221225472 cpu:               0.3 elap:               0.0
 (Enter /public/gkxiao/software/g16/l202.exe)
                          Input orientation:                          
 ---------------------------------------------------------------------
 Center     Atomic      Atomic             Coordinates (Angstroms)
 Number     Number       Type             X           Y           Z
 ---------------------------------------------------------------------
      1          6           0       -0.919641    3.054591    0.538939
      2          6           0       -1.698811    4.009044    1.134984
      3          7           0       -1.520772    5.148206    0.393969
      4          6           0       -0.658798    4.852011   -0.602321
      5          7           0       -0.273672    3.598073   -0.548243
      6          6           0       -0.734543    1.617739    0.908670
      7          6           0       -1.279953    1.312147    2.306184
      8          6           0       -1.351906    0.665114   -0.105080
      9          6           0       -2.484445    1.067875   -0.812636
     10          6           0       -3.111307    0.215896   -1.706763
     11          6           0       -2.601615   -1.059525   -1.906712
     12          6           0       -1.475415   -1.491190   -1.213158
     13          6           0       -0.844328   -0.629144   -0.297468
     14          6           0        0.353472   -1.145789    0.451617
     15          6           0       -0.947875   -2.877888   -1.446789
     16          1           0        0.347453    1.449283    0.917581
     17          1           0       -2.345855    3.983878    1.995934
     18          1           0       -1.946726    6.045413    0.566211
     19          1           0       -0.343247    5.583045   -1.331824
     20          1           0       -1.093975    0.269768    2.572949
     21          1           0       -2.361364    1.471873    2.339487
     22          1           0       -0.814119    1.950330    3.061812
     23          1           0       -2.870014    2.070692   -0.658256
     24          1           0       -3.991393    0.545372   -2.250621
     25          1           0       -3.082478   -1.733025   -2.610588
     26          1           0        1.138362   -1.472656   -0.237572
     27          1           0        0.791044   -0.409641    1.122255
     28          1           0        0.087476   -2.018887    1.056381
     29          1           0        0.082957   -2.861019   -1.815256
     30          1           0       -0.939038   -3.467367   -0.524279
     31          1           0       -1.556675   -3.410217   -2.179304
 ---------------------------------------------------------------------
                    Distance matrix (angstroms):
                    1          2          3          4          5
     1  C    0.000000
     2  C    1.368706   0.000000
     3  N    2.183025   1.370581   0.000000
     4  C    2.145048   2.193273   1.350305   0.000000
     5  N    1.376449   2.243473   2.201348   1.312862   0.000000
     6  C    1.495162   2.588315   3.653392   3.570623   2.501344
     7  C    2.507806   2.969916   4.293007   4.623404   3.792863
     8  C    2.512214   3.583290   4.513943   4.272909   3.156142
     9  C    2.867474   3.613989   4.362759   4.206769   3.370360
    10  C    4.231403   4.945568   5.592009   5.359865   4.564369
    11  C    5.073086   5.979746   6.708001   6.357847   5.381261
    12  C    4.903351   5.984667   6.831288   6.424654   5.271327
    13  C    3.778248   4.928980   5.857768   5.492761   4.272927
    14  C    4.389947   5.590273   6.567381   6.173255   4.888482
    15  C    6.256055   7.393192   8.254380   7.781261   6.572671
    16  H    2.079883   3.284332   4.176897   3.860207   2.674273
    17  H    2.240646   1.077281   2.145394   3.217257   3.303880
    18  H    3.162382   2.128794   1.008009   2.109130   3.167110
    19  H    3.197665   3.224930   2.134013   1.079888   2.135171
    20  H    3.452945   4.051636   5.359969   5.591839   4.635984
    21  H    2.797416   2.885661   4.243473   4.793568   4.149478
    22  H    2.755978   2.955275   4.224116   4.676510   4.004951
    23  H    2.491042   2.888708   3.521182   3.553637   3.014297
    24  H    4.849071   5.358663   5.855246   5.689483   5.102795
    25  H    6.125248   6.993940   7.669266   7.298634   6.368930
    26  H    5.033320   6.323171   7.162796   6.585152   5.272822
    27  H    3.907378   5.071914   6.063378   5.723738   4.470565
    28  H    5.198290   6.287524   7.375126   7.107564   5.852819
    29  H    6.445299   7.686116   8.461697   7.842974   6.591842
    30  H    6.608082   7.695916   8.683876   8.324462   7.096741
    31  H    7.041904   8.127124   8.936981   8.459165   7.309076
                    6          7          8          9         10
     6  C    0.000000
     7  C    1.530981   0.000000
     8  C    1.521947   2.497604   0.000000
     9  C    2.515433   3.352239   1.394810   0.000000
    10  C    3.801930   4.545258   2.421297   1.385023   0.000000
    11  C    4.310461   5.011997   2.789629   2.395112   1.387971
    12  C    3.836207   4.503629   2.427496   2.779815   2.415353
    13  C    2.552510   3.276794   1.403479   2.415627   2.799893
    14  C    3.004955   3.485534   2.549038   3.814763   4.303195
    15  C    5.079799   5.634845   3.810024   4.281617   3.784115
    16  H    1.095067   2.143705   2.132739   3.340474   4.513474
    17  H    3.062202   2.893190   4.051714   4.050968   5.337937
    18  H    4.603364   5.086835   5.454545   5.192903   6.364427
    19  H    4.571278   5.687977   5.168011   5.024047   6.050540
    20  H    2.171644   1.091927   2.719314   3.746006   4.731645
    21  H    2.171419   1.093650   2.765099   3.180289   4.302561
    22  H    2.180130   1.093276   3.459798   4.310459   5.569977
    23  H    2.687129   3.448419   2.141566   1.085421   2.144262
    24  H    4.662421   5.357641   3.403612   2.147487   1.085765
    25  H    5.396814   6.057790   3.876019   3.381614   2.148493
    26  H    3.791066   4.480409   3.284668   4.462031   4.803063
    27  H    2.546233   2.941984   2.693266   4.081137   4.860348
    28  H    3.731298   3.811517   3.259551   4.431264   4.781364
    29  H    5.305408   6.021553   4.173385   4.799272   4.436496
    30  H    5.287104   5.565205   4.174157   4.799984   4.436603
    31  H    5.957502   6.518965   4.577407   4.773033   3.973521
                   11         12         13         14         15
    11  C    0.000000
    12  C    1.391286   0.000000
    13  C    2.421353   1.407083   0.000000
    14  C    3.781758   2.497119   1.504252   0.000000
    15  C    2.500566   1.501937   2.527550   2.880558   0.000000
    16  H    4.792468   4.063161   2.686363   2.636580   5.098287
    17  H    6.382160   6.405646   5.366027   5.998730   7.803238
    18  H    7.551448   7.758135   6.819892   7.550988   9.201911
    19  H    7.039493   7.165241   6.317616   6.995948   8.483289
    20  H    4.909925   4.192979   3.018221   2.932398   5.107580
    21  H    4.949333   4.710194   3.697188   4.217409   5.937529
    22  H    6.077878   5.527815   4.235488   4.214539   6.607349
    23  H    3.380671   3.865207   3.394508   4.687049   5.367015
    24  H    2.150686   3.399126   3.885655   5.388874   4.650576
    25  H    1.086404   2.143350   3.402704   4.639795   2.687317
    26  H    4.116325   2.789972   2.155495   1.094475   2.790926
    27  H    4.594249   3.429393   2.176749   1.087722   3.964349
    28  H    4.114791   2.805691   2.152336   1.094895   2.841776
    29  H    3.234296   2.160434   2.853910   2.855504   1.094836
    30  H    3.236199   2.160447   2.848846   2.830668   1.094800
    31  H    2.586882   2.150048   3.432654   3.962076   1.091142
                   16         17         18         19         20
    16  H    0.000000
    17  H    3.852392   0.000000
    18  H    5.148896   2.540342   0.000000
    19  H    4.756562   4.200208   2.527343   0.000000
    20  H    2.491829   3.961661   6.173512   6.636396   0.000000
    21  H    3.059414   2.535437   4.922774   5.869673   1.762337
    22  H    2.489583   2.760005   4.927527   5.720347   1.772454
    23  H    3.636139   3.313570   4.260303   4.378912   4.103453
    24  H    5.447948   5.706517   6.508890   6.287393   5.633632
    25  H    5.859991   7.378728   8.478566   7.916029   5.902066
    26  H    3.240006   6.848509   8.166100   7.292151   3.989787
    27  H    1.922046   5.468679   7.033654   6.574299   2.473744
    28  H    3.480669   6.545002   8.331337   7.979876   2.988938
    29  H    5.110485   8.202250   9.440102   8.468623   5.517548
    30  H    5.282752   7.990723   9.627958   9.105880   4.856234
    31  H    6.068867   8.528074   9.853879   9.114242   6.028291
                   21         22         23         24         25
    21  H    0.000000
    22  H    1.773314   0.000000
    23  H    3.098996   4.252070   0.000000
    24  H    4.958275   6.347513   2.473806   0.000000
    25  H    5.940927   7.133630   4.280771   2.479273   0.000000
    26  H    5.249720   5.139547   5.366504   5.868491   4.849174
    27  H    3.867741   3.450781   4.767139   5.929590   5.539823
    28  H    4.452930   4.537545   5.330233   5.843703   4.855614
    29  H    6.481554   6.909386   5.863485   5.328543   3.453245
    30  H    5.883898   6.498238   5.866576   5.329090   3.457595
    31  H    6.700880   7.533668   5.837706   4.645387   2.308041
                   26         27         28         29         30
    26  H    0.000000
    27  H    1.760613   0.000000
    28  H    1.754151   1.757561   0.000000
    29  H    2.351706   3.890965   2.992575   0.000000
    30  H    2.894247   3.879942   2.377039   1.754637   0.000000
    31  H    3.845477   5.041382   3.886990   1.767072   1.767441
                   31
    31  H    0.000000
 Stoichiometry    C13H16N2
 Framework group  C1[X(C13H16N2)]
 Deg. of freedom    87
 Full point group                 C1      NOp   1
 RotChk:  IX=0 Diff= 1.90D-15
 Largest Abelian subgroup         C1      NOp   1
 Largest concise Abelian subgroup C1      NOp   1
                         Standard orientation:                         
 ---------------------------------------------------------------------
 Center     Atomic      Atomic             Coordinates (Angstroms)
 Number     Number       Type             X           Y           Z
 ---------------------------------------------------------------------
      1          6           0        1.997912    0.351346    0.130796
      2          6           0        3.049048    0.167224   -0.726273
      3          7           0        3.980116   -0.550451   -0.021613
      4          6           0        3.473245   -0.770730    1.210411
      5          7           0        2.278744   -0.241780    1.340734
      6          6           0        0.697204    1.050511   -0.103372
      7          6           0        0.724317    1.896290   -1.379234
      8          6           0       -0.485902    0.094003   -0.144263
      9          6           0       -0.292396   -1.205019   -0.613937
     10          6           0       -1.349265   -2.094065   -0.718408
     11          6           0       -2.622832   -1.687943   -0.344836
     12          6           0       -2.847905   -0.397563    0.124141
     13          6           0       -1.775976    0.508785    0.220999
     14          6           0       -2.068430    1.902243    0.706305
     15          6           0       -4.237131    0.015750    0.517891
     16          1           0        0.561583    1.721759    0.751149
     17          1           0        3.216617    0.473315   -1.745471
     18          1           0        4.882026   -0.850490   -0.357201
     19          1           0        4.014353   -1.313962    1.970846
     20          1           0       -0.218419    2.432410   -1.506236
     21          1           0        0.861648    1.260403   -2.258357
     22          1           0        1.536567    2.627595   -1.352869
     23          1           0        0.708642   -1.517740   -0.893700
     24          1           0       -1.181449   -3.102277   -1.084786
     25          1           0       -3.457242   -2.379898   -0.417158
     26          1           0       -2.532931    1.885046    1.697172
     27          1           0       -1.182266    2.529780    0.769929
     28          1           0       -2.776244    2.405947    0.039914
     29          1           0       -4.285035    0.321726    1.568010
     30          1           0       -4.586708    0.869669   -0.071351
     31          1           0       -4.944500   -0.802653    0.374938
 ---------------------------------------------------------------------
 Rotational constants (GHZ):           1.2701820           0.3639254           0.3266311
 Leave Link  202 at Sun Oct  9 18:30:08 2022, MaxMem=  3221225472 cpu:               0.1 elap:               0.0
 (Enter /public/gkxiao/software/g16/l301.exe)
 Standard basis: 6-311+G(2d,p) (5D, 7F)
 Ernie: Thresh=  0.10000D-02 Tol=  0.10000D-05 Strict=F.
 There are   531 symmetry adapted cartesian basis functions of A   symmetry.
 There are   501 symmetry adapted basis functions of A   symmetry.
   501 basis functions,   758 primitive gaussians,   531 cartesian basis functions
    54 alpha electrons       54 beta electrons
       nuclear repulsion energy       960.2336801557 Hartrees.
 IExCor= 3731 DFT=T Ex+Corr=APFD ExCW=0 ScaHFX=  0.229450
 ScaDFX=  1.000000  1.000000  1.000000  1.000000 ScalE2=  1.000000  1.000000
 IRadAn=      5 IRanWt=     -1 IRanGd=            0 ICorTp=0 IEmpDi=211
 NAtoms=   31 NActive=   31 NUniq=   31 SFac= 1.00D+00 NAtFMM=   60 NAOKFM=F Big=F
 Integral buffers will be    131072 words long.
 Raffenetti 2 integral format.
 Two-electron integral symmetry is turned on.
 R6APFD:  NTU= -4 IXU= 1 FactS= 1.050
 R6Disp:  Petersson-Frisch Dispersion energy=       -0.0242112972 Hartrees.
 Nuclear repulsion after empirical dispersion term =      960.2094688585 Hartrees.
 Force inversion solution in PCM.
 ------------------------------------------------------------------------------
 Polarizable Continuum Model (PCM)
 =================================
 Model                : PCM.
 Atomic radii         : UFF (Universal Force Field).
 Polarization charges : Total charges.
 Charge compensation  : None.
 Solution method      : Matrix inversion.
 Cavity type          : Scaled VdW (van der Waals Surface) (Alpha=1.100).
 Cavity algorithm     : GePol (No added spheres)
                        Default sphere list used, NSphG=   31.
                        Lebedev-Laikov grids with approx.  5.0 points / Ang**2.
                        Smoothing algorithm: York/Karplus (Gamma=1.0000).
                        Polarization charges: spherical gaussians, with
                                              point-specific exponents (IZeta= 3).
                        Self-potential: point-specific (ISelfS= 7).
                        Self-field    : sphere-specific E.n sum rule (ISelfD= 2).
 1st derivatives      : Analytical E(r).r(x)/FMM algorithm (CHGder, D1EAlg=3).
                        Cavity 1st derivative terms included.
 2nd derivatives      : Analytical E(r).r(xy)/FMM algorithm (CHGder, D2EAlg=3).
                        Cavity 2nd derivative terms included.
 Solvent              : Methanol, Eps=  32.613000 Eps(inf)=   1.765709
 ------------------------------------------------------------------------------
 GePol: Number of generator spheres                  =      31
 GePol: Total number of spheres                      =      31
 GePol: Number of exposed spheres                    =      31 (100.00%)
 GePol: Number of points                             =    2201
 GePol: Average weight of points                     =       0.13
 GePol: Minimum weight of points                     =   0.21D-11
 GePol: Maximum weight of points                     =    0.20577
 GePol: Number of points with low weight             =     146
 GePol: Fraction of low-weight points (<1% of avg)   =       6.63%
 GePol: Cavity surface area                          =    286.941 Ang**2
 GePol: Cavity volume                                =    308.443 Ang**3
 Leave Link  301 at Sun Oct  9 18:30:08 2022, MaxMem=  3221225472 cpu:               1.6 elap:               0.1
 (Enter /public/gkxiao/software/g16/l302.exe)
 NPDir=0 NMtPBC=     1 NCelOv=     1 NCel=       1 NClECP=     1 NCelD=      1
         NCelK=      1 NCelE2=     1 NClLst=     1 CellRange=     0.0.
 One-electron integrals computed using PRISM.
 One-electron integral symmetry used in STVInt
 NBasis=   501 RedAO= T EigKep=  1.02D-06  NBF=   501
 NBsUse=   498 1.00D-06 EigRej=  7.68D-07 NBFU=   498
 Precomputing XC quadrature grid using
 IXCGrd= 4 IRadAn=           5 IRanWt=          -1 IRanGd=           0 AccXCQ= 0.00D+00.
 Generated NRdTot=       0 NPtTot=           0 NUsed=           0 NTot=          32
 NSgBfM=   531   531   531   531   531 MxSgAt=    31 MxSgA2=    31.
 Leave Link  302 at Sun Oct  9 18:30:08 2022, MaxMem=  3221225472 cpu:              12.3 elap:               0.5
 (Enter /public/gkxiao/software/g16/l303.exe)
 DipDrv:  MaxL=2.
 Leave Link  303 at Sun Oct  9 18:30:08 2022, MaxMem=  3221225472 cpu:               2.4 elap:               0.1
 (Enter /public/gkxiao/software/g16/l401.exe)
 Initial guess from the checkpoint file:  "CONF_01_VCD.chk"
 B after Tr=    -0.000000   -0.000000    0.000000
         Rot=    1.000000    0.000000    0.000000    0.000000 Ang=   0.00 deg.
 Guess basis will be translated and rotated to current coordinates.
 JPrj=2 DoOrth=T DoCkMO=T.
 Leave Link  401 at Sun Oct  9 18:30:09 2022, MaxMem=  3221225472 cpu:               9.1 elap:               0.4
 (Enter /public/gkxiao/software/g16/l502.exe)
 Integral symmetry usage will be decided dynamically.
 Closed shell SCF:
 Using DIIS extrapolation, IDIIS=  1040.
 NGot=  3221225472 LenX=  3220643817 LenY=  3220361325
 Requested convergence on RMS density matrix=1.00D-08 within 128 cycles.
 Requested convergence on MAX density matrix=1.00D-06.
 Requested convergence on             energy=1.00D-06.
 No special actions if energy rises.
 Fock matrices will be formed incrementally for  20 cycles.

 Cycle   1  Pass 1  IDiag  1:
 FoFJK:  IHMeth= 1 ICntrl=       0 DoSepK=F KAlg= 0 I1Cent=           0 FoldK=F
 IRaf= 870000000 NMat=       1 IRICut=       1 DoRegI=T DoRafI=F ISym2E= 0 IDoP0=0 IntGTp=1.
 FoFCou: FMM=F IPFlag=           0 FMFlag=      100000 FMFlg1=           0
         NFxFlg=           0 DoJE=F BraDBF=F KetDBF=F FulRan=T
         wScrn=  0.000000 ICntrl=         0 IOpCl=  0 I1Cent=           0 NGrid=           0
         NMat0=    1 NMatS0=      1 NMatT0=    0 NMatD0=    1 NMtDS0=    0 NMtDT0=    0
 Symmetry not used in FoFCou.
 Inv3:  Mode=1 IEnd=    14533203.
 Iteration    1 A*A^-1 deviation from unit magnitude is 3.22D-15 for    235.
 Iteration    1 A*A^-1 deviation from orthogonality  is 1.76D-15 for   1429    236.
 Iteration    1 A^-1*A deviation from unit magnitude is 3.00D-15 for    416.
 Iteration    1 A^-1*A deviation from orthogonality  is 1.99D-15 for   1542    333.
 E= -614.209835638106    
 DIIS: error= 1.70D-08 at cycle   1 NSaved=   1.
 NSaved= 1 IEnMin= 1 EnMin= -614.209835638106     IErMin= 1 ErrMin= 1.70D-08
 ErrMax= 1.70D-08  0.00D+00 EMaxC= 1.00D-01 BMatC= 1.66D-13 BMatP= 1.66D-13
 IDIUse=1 WtCom= 1.00D+00 WtEn= 0.00D+00
 Coeff-Com:  0.100D+01
 Coeff:      0.100D+01
 Gap=     0.230 Goal=   None    Shift=    0.000
 RMSDP=6.18D-09 MaxDP=4.46D-07              OVMax= 4.47D-07

 Error on total polarization charges =  0.01683
 SCF Done:  E(RAPFD) =  -614.209835638     A.U. after    1 cycles
            NFock=  1  Conv=0.62D-08     -V/T= 2.0044
 KE= 6.115078150266D+02 PE=-3.348202430217D+03 EE= 1.162275310694D+03
 Leave Link  502 at Sun Oct  9 18:30:19 2022, MaxMem=  3221225472 cpu:             224.8 elap:               9.9
 (Enter /public/gkxiao/software/g16/l801.exe)
 DoSCS=F DFT=T ScalE2(SS,OS)=  1.000000  1.000000
 Range of M.O.s used for correlation:     1   498
 NBasis=   501 NAE=    54 NBE=    54 NFC=     0 NFV=     0
 NROrb=    498 NOA=    54 NOB=    54 NVA=   444 NVB=   444

 **** Warning!!: The largest alpha MO coefficient is  0.19073268D+03

 Leave Link  801 at Sun Oct  9 18:30:19 2022, MaxMem=  3221225472 cpu:               0.9 elap:               0.0
 (Enter /public/gkxiao/software/g16/l1002.exe)
 Minotr:  Closed shell wavefunction.
 NEqPCM:  Using equilibrium solvation (IEInf=0, Eps=  32.6130, EpsInf=   1.7657)
          Direct CPHF calculation.
          Differentiating once with respect to magnetic field using GIAOs.
          Electric field/nuclear overlap derivatives assumed to be zero.
          Requested convergence is 1.0D-08 RMS, and 1.0D-07 maximum.
          Secondary convergence is 1.0D-12 RMS, and 1.0D-12 maximum.
          NewPWx=T KeepS1=F KeepF1=F KeepIn=T MapXYZ=F SortEE=F KeepMc=T.
         9547 words used for storage of precomputed grid.
 Two-electron integral symmetry used by symmetrizing perturbed Fock matrices.
          MDV=    3221225472 using IRadAn=       1.
          Solving linear equations simultaneously, MaxMat=     384.
 FoFJK:  IHMeth= 1 ICntrl=    6127 DoSepK=F KAlg= 0 I1Cent=           0 FoldK=F
 IRaf=         1 NMat=       1 IRICut=       1 DoRegI=T DoRafI=F ISym2E= 0 IDoP0=0 IntGTp=1.
          There are     3 degrees of freedom in the 1st order CPHF.  IDoFFX=0 NUNeed=     3.
      3 vectors produced by pass  0 Test12= 7.99D-13 3.33D-08 XBig12= 2.00D+02 2.49D+00.
 AX will form     3 AO Fock derivatives at one time.
      3 vectors produced by pass  1 Test12= 7.99D-13 3.33D-08 XBig12= 4.16D-01 2.10D-01.
      3 vectors produced by pass  2 Test12= 7.99D-13 3.33D-08 XBig12= 1.94D-03 1.23D-02.
      3 vectors produced by pass  3 Test12= 7.99D-13 3.33D-08 XBig12= 6.51D-06 6.22D-04.
      3 vectors produced by pass  4 Test12= 7.99D-13 3.33D-08 XBig12= 1.85D-08 2.74D-05.
      3 vectors produced by pass  5 Test12= 7.99D-13 3.33D-08 XBig12= 6.81D-11 1.60D-06.
      3 vectors produced by pass  6 Test12= 7.99D-13 3.33D-08 XBig12= 2.20D-13 7.85D-08.
 InvSVY:  IOpt=1 It=  1 EMax= 5.33D-15
 Solved reduced A of dimension    21 with     3 vectors.
 Calculating GIAO nuclear magnetic shielding tensors.
 SCF GIAO Magnetic shielding tensor (ppm):
      1  C    Isotropic =    35.7534   Anisotropy =   125.6960
   XX=    17.4222   YX=    46.7236   ZX=     3.2460
   XY=    57.2813   YY=    80.9327   ZY=    33.1657
   XZ=   -13.2538   YZ=    45.1465   ZZ=     8.9053
   Eigenvalues:   -29.4908    17.2002   119.5508
      2  C    Isotropic =    70.9308   Anisotropy =   119.0432
   XX=    79.7224   YX=    36.0285   ZX=    -4.3316
   XY=    31.7958   YY=   116.0537   ZY=    48.8416
   XZ=    -8.8836   YZ=    55.0849   ZZ=    17.0162
   Eigenvalues:    -9.7404    72.2399   150.2929
      3  N    Isotropic =    85.9470   Anisotropy =   137.8130
   XX=    14.5823   YX=    68.6622   ZX=    26.8020
   XY=    62.7779   YY=   141.4093   ZY=    16.0161
   XZ=    39.1431   YZ=     9.9687   ZZ=   101.8493
   Eigenvalues:   -18.7720    98.7906   177.8223
      4  C    Isotropic =    49.2418   Anisotropy =   105.8422
   XX=    59.4262   YX=    34.7638   ZX=   -13.9439
   XY=    27.1698   YY=    86.8113   ZY=    52.0503
   XZ=     6.1667   YZ=    41.8281   ZZ=     1.4880
   Eigenvalues:   -22.6581    50.5803   119.8033
      5  N    Isotropic =   -21.9062   Anisotropy =   372.3763
   XX=   -86.5724   YX=   151.3129   ZX=    -9.5147
   XY=   141.6974   YY=   110.1643   ZY=   126.2165
   XZ=    13.4776   YZ=   117.0464   ZZ=   -89.3106
   Eigenvalues:  -201.9278   -90.1355   226.3446
      6  C    Isotropic =   147.0954   Anisotropy =    12.1249
   XX=   153.8673   YX=    -2.4776   ZX=     6.5917
   XY=     1.3422   YY=   150.1739   ZY=     0.6067
   XZ=     1.9522   YZ=    -5.6536   ZZ=   137.2451
   Eigenvalues:   135.8346   150.2730   155.1787
      7  C    Isotropic =   166.0683   Anisotropy =    32.6270
   XX=   161.1277   YX=     4.7799   ZX=    -2.5156
   XY=     8.8635   YY=   168.4859   ZY=   -12.8532
   XZ=    -8.7919   YZ=   -19.8752   ZZ=   168.5915
   Eigenvalues:   152.0689   158.3164   187.8197
      8  C    Isotropic =    36.6547   Anisotropy =   192.5779
   XX=   -28.3635   YX=   -30.5544   ZX=    24.8031
   XY=   -34.8826   YY=    -4.1471   ZY=   -51.5088
   XZ=    25.3027   YZ=   -52.4738   ZZ=   142.4746
   Eigenvalues:   -51.7075    -3.3685   165.0400
      9  C    Isotropic =    58.4702   Anisotropy =   177.6102
   XX=   -22.0373   YX=    19.1224   ZX=    42.3981
   XY=    20.6165   YY=    40.8129   ZY=   -47.6320
   XZ=    52.7344   YZ=   -30.8333   ZZ=   156.6349
   Eigenvalues:   -44.2785    42.8120   176.8770
     10  C    Isotropic =    58.3766   Anisotropy =   176.4264
   XX=    50.3721   YX=     9.3541   ZX=    26.6827
   XY=     9.5406   YY=   -23.1249   ZY=   -68.0958
   XZ=    27.4221   YZ=   -68.9651   ZZ=   147.8826
   Eigenvalues:   -50.4425    49.5781   175.9942
     11  C    Isotropic =    56.6722   Anisotropy =   152.3534
   XX=     1.6490   YX=   -53.1241   ZX=    12.0222
   XY=   -58.4143   YY=    25.1427   ZY=   -33.4817
   XZ=     9.5683   YZ=   -39.2311   ZZ=   143.2248
   Eigenvalues:   -44.7862    56.5616   158.2411
     12  C    Isotropic =    44.1098   Anisotropy =   190.2661
   XX=   -41.6823   YX=    10.8190   ZX=    43.1331
   XY=    11.4321   YY=    26.3975   ZY=   -49.3746
   XZ=    40.7345   YZ=   -48.1733   ZZ=   147.6142
   Eigenvalues:   -56.5633    17.9388   170.9539
     13  C    Isotropic =    47.3104   Anisotropy =   180.2491
   XX=    24.2863   YX=     3.0221   ZX=    26.9767
   XY=     4.6675   YY=   -26.9573   ZY=   -61.8372
   XZ=    28.4924   YZ=   -56.2926   ZZ=   144.6022
   Eigenvalues:   -47.3917    21.8465   167.4765
     14  C    Isotropic =   171.8642   Anisotropy =    15.1708
   XX=   162.9442   YX=    -1.8975   ZX=     1.3804
   XY=    -0.7528   YY=   178.2978   ZY=     3.2919
   XZ=    -1.4808   YZ=     7.1639   ZZ=   174.3504
   Eigenvalues:   162.8147   170.7997   181.9780
     15  C    Isotropic =   164.9325   Anisotropy =    29.5618
   XX=   182.7312   YX=    -4.4414   ZX=    -7.3998
   XY=    -0.4138   YY=   159.4543   ZY=     3.2290
   XZ=    -6.4926   YZ=     3.5423   ZZ=   152.6119
   Eigenvalues:   150.2199   159.9372   184.6403
     16  H    Isotropic =    27.0896   Anisotropy =     7.1857
   XX=    28.2878   YX=    -0.7532   ZX=    -0.9812
   XY=    -4.5105   YY=    25.5325   ZY=     3.4979
   XZ=    -0.7063   YZ=     3.9165   ZZ=    27.4484
   Eigenvalues:    22.2114    27.1773    31.8800
     17  H    Isotropic =    24.4485   Anisotropy =     6.5168
   XX=    27.6636   YX=    -2.4354   ZX=    -1.7492
   XY=    -2.2152   YY=    22.6829   ZY=    -0.7025
   XZ=    -1.1788   YZ=    -0.7859   ZZ=    22.9990
   Eigenvalues:    20.9625    23.5899    28.7931
     18  H    Isotropic =    22.7496   Anisotropy =     7.9602
   XX=    26.3739   YX=    -3.1258   ZX=    -2.2946
   XY=    -3.2866   YY=    19.4177   ZY=    -0.8067
   XZ=    -1.6752   YZ=    -1.0176   ZZ=    22.4571
   Eigenvalues:    17.6282    22.5642    28.0564
     19  H    Isotropic =    24.0735   Anisotropy =     4.1282
   XX=    24.8370   YX=    -2.1120   ZX=     0.6188
   XY=    -1.6775   YY=    21.7523   ZY=    -2.0653
   XZ=    -0.1730   YZ=    -1.4197   ZZ=    25.6312
   Eigenvalues:    20.4184    24.9765    26.8256
     20  H    Isotropic =    30.3815   Anisotropy =     7.2312
   XX=    32.1909   YX=    -3.6902   ZX=    -0.5464
   XY=    -3.0712   YY=    30.0612   ZY=    -2.4436
   XZ=    -1.4466   YZ=    -5.4675   ZZ=    28.8923
   Eigenvalues:    24.3056    31.6365    35.2023
     21  H    Isotropic =    30.5786   Anisotropy =     7.1673
   XX=    28.4398   YX=    -1.3905   ZX=    -0.6698
   XY=    -0.3520   YY=    28.5528   ZY=     0.9490
   XZ=    -3.1801   YZ=     0.0101   ZZ=    34.7433
   Eigenvalues:    27.4264    28.9527    35.3569
     22  H    Isotropic =    30.1920   Anisotropy =    10.5984
   XX=    30.7233   YX=     3.7041   ZX=    -1.2018
   XY=     3.6772   YY=    33.3995   ZY=    -2.7367
   XZ=    -3.0903   YZ=    -3.3037   ZZ=    26.4532
   Eigenvalues:    25.1826    28.1358    37.2576
     23  H    Isotropic =    25.0130   Anisotropy =    12.5171
   XX=    26.0326   YX=     3.9708   ZX=     1.4746
   XY=     6.1846   YY=    28.4795   ZY=     4.0817
   XZ=     2.3730   YZ=     1.4349   ZZ=    20.5270
   Eigenvalues:    19.6337    22.0477    33.3577
     24  H    Isotropic =    24.5096   Anisotropy =     5.7683
   XX=    27.7342   YX=     1.3494   ZX=    -0.6919
   XY=     1.6973   YY=    24.6155   ZY=     1.2372
   XZ=    -0.4345   YZ=     1.2638   ZZ=    21.1792
   Eigenvalues:    20.6220    24.5518    28.3552
     25  H    Isotropic =    24.3779   Anisotropy =     6.3552
   XX=    25.7947   YX=    -2.3203   ZX=    -1.7214
   XY=    -1.2731   YY=    25.9546   ZY=     2.1243
   XZ=    -1.4531   YZ=     2.0508   ZZ=    21.3844
   Eigenvalues:    20.4238    24.0952    28.6147
     26  H    Isotropic =    29.5633   Anisotropy =     8.9626
   XX=    28.7508   YX=     1.1307   ZX=    -2.7316
   XY=     0.3239   YY=    27.1465   ZY=     2.1348
   XZ=    -4.6089   YZ=     3.6830   ZZ=    32.7924
   Eigenvalues:    24.5386    28.6128    35.5383
     27  H    Isotropic =    28.9519   Anisotropy =     7.2828
   XX=    33.2668   YX=     0.5231   ZX=    -2.1624
   XY=     2.0219   YY=    29.6310   ZY=     2.2817
   XZ=    -1.4993   YZ=     2.1973   ZZ=    23.9579
   Eigenvalues:    22.7405    30.3081    33.8071
     28  H    Isotropic =    29.6126   Anisotropy =     8.5095
   XX=    31.1652   YX=    -2.1714   ZX=     1.7483
   XY=    -3.0273   YY=    31.1529   ZY=    -1.8640
   XZ=     2.8826   YZ=    -3.8424   ZZ=    26.5197
   Eigenvalues:    24.9607    28.5915    35.2857
     29  H    Isotropic =    29.3685   Anisotropy =     7.8608
   XX=    29.2000   YX=     0.1260   ZX=    -2.9641
   XY=     1.7135   YY=    26.9268   ZY=     1.8713
   XZ=    -3.8203   YZ=     3.1733   ZZ=    31.9787
   Eigenvalues:    24.6223    28.8742    34.6090
     30  H    Isotropic =    29.3831   Anisotropy =     7.6514
   XX=    31.6002   YX=    -2.7266   ZX=     1.3784
   XY=    -1.5239   YY=    30.7841   ZY=    -1.7943
   XZ=     3.0845   YZ=    -2.6422   ZZ=    25.7651
   Eigenvalues:    24.6222    29.0431    34.4841
     31  H    Isotropic =    29.5281   Anisotropy =     8.4240
   XX=    32.7707   YX=     3.8988   ZX=    -0.2872
   XY=     2.3372   YY=    30.9657   ZY=     1.8210
   XZ=    -0.8203   YZ=     1.4620   ZZ=    24.8478
   Eigenvalues:    24.2078    29.2323    35.1441
 End of Minotr F.D. properties file   721 does not exist.
 End of Minotr F.D. properties file   722 does not exist.
 End of Minotr F.D. properties file   788 does not exist.
 Leave Link 1002 at Sun Oct  9 18:31:50 2022, MaxMem=  3221225472 cpu:            2147.8 elap:              90.9
 (Enter /public/gkxiao/software/g16/l1101.exe)
 Using compressed storage, NAtomX=    31.
 Will process     32 centers per pass.
 R6APFD:  NTU= -4 IXU= 1 FactS= 1.050
 R6Disp: Adding Petersson-Frisch dispersion energy 1st derivatives to the gradient.
 Leave Link 1101 at Sun Oct  9 18:31:51 2022, MaxMem=  3221225472 cpu:              32.7 elap:               1.4
 (Enter /public/gkxiao/software/g16/l1102.exe)
 Symmetrizing basis deriv contribution to polar:
 IMax=3 JMax=2 DiffMx= 0.00D+00
 Leave Link 1102 at Sun Oct  9 18:31:51 2022, MaxMem=  3221225472 cpu:               2.2 elap:               0.1
 (Enter /public/gkxiao/software/g16/l1110.exe)
 Forming Gx(P) for the SCF density, NAtomX=    31.
 Integral derivatives from FoFJK, PRISM(SPDF).
 Do as many integral derivatives as possible in FoFJK.
 G2DrvN: MDV=    3221223104.
 G2DrvN: will do    32 centers at a time, making    1 passes.
 Calling FoFCou, ICntrl=  3107 FMM=F I1Cent=   0 AccDes= 0.00D+00.
 FoFJK:  IHMeth= 1 ICntrl=    3107 DoSepK=F KAlg= 0 I1Cent=           0 FoldK=F
 IRaf=         0 NMat=       1 IRICut=       1 DoRegI=T DoRafI=F ISym2E= 0 IDoP0=0 IntGTp=1.
 FoFCou: FMM=F IPFlag=           0 FMFlag=      100000 FMFlg1=           0
         NFxFlg=           0 DoJE=F BraDBF=F KetDBF=F FulRan=T
         wScrn=  0.000000 ICntrl=      3107 IOpCl=  0 I1Cent=           0 NGrid=           0
         NMat0=    1 NMatS0=      1 NMatT0=    0 NMatD0=    1 NMtDS0=    0 NMtDT0=    0
 Symmetry not used in FoFCou.
 NEqPCM:  Using equilibrium solvation (IEInf=0, Eps=  32.6130, EpsInf=   1.7657)
 G2PCM: DoFxE=T DoFxN=T DoGrad=T DoDP/DQ/DG/TGxP=FFFF NFrqRd=   0 IEInf=0 SqF1=F DoCFld=F IF1Alg=4.
 GePol: Maximum number of non-zero 1st derivatives   =     209
 End of G2Drv F.D. properties file   721 does not exist.
 End of G2Drv F.D. properties file   722 does not exist.
 End of G2Drv F.D. properties file   788 does not exist.
 Leave Link 1110 at Sun Oct  9 18:34:17 2022, MaxMem=  3221225472 cpu:            3496.8 elap:             145.7
 (Enter /public/gkxiao/software/g16/l1002.exe)
 Minotr:  Closed shell wavefunction.
          IDoAtm=1111111111111111111111111111111
 NEqPCM:  Using equilibrium solvation (IEInf=0, Eps=  32.6130, EpsInf=   1.7657)
          Direct CPHF calculation.
          Differentiating once with respect to electric field.
                with respect to dipole field.
          Differentiating once with respect to nuclear coordinates.
          Requested convergence is 1.0D-08 RMS, and 1.0D-07 maximum.
          Secondary convergence is 1.0D-12 RMS, and 1.0D-12 maximum.
          NewPWx=T KeepS1=F KeepF1=F KeepIn=T MapXYZ=F SortEE=F KeepMc=T.
         9547 words used for storage of precomputed grid.
 Two-electron integrals replicated using symmetry.
          MDV=    3221225472 using IRadAn=       1.
          Solving linear equations simultaneously, MaxMat=     384.
 FoF2E skips out because all densities are zero.
 CalDSu exits because no D1Ps are significant.
 FoFJK:  IHMeth= 1 ICntrl=       0 DoSepK=F KAlg= 0 I1Cent=           0 FoldK=F
 IRaf= 850000000 NMat=      93 IRICut=     232 DoRegI=T DoRafI=T ISym2E= 2 IDoP0=3 IntGTp=3.
          There are    96 degrees of freedom in the 1st order CPHF.  IDoFFX=5 NUNeed=    96.
     93 vectors produced by pass  0 Test12= 2.50D-14 1.04D-09 XBig12= 1.80D+02 5.85D+00.
 AX will form    93 AO Fock derivatives at one time.
     93 vectors produced by pass  1 Test12= 2.50D-14 1.04D-09 XBig12= 2.87D+01 9.42D-01.
     93 vectors produced by pass  2 Test12= 2.50D-14 1.04D-09 XBig12= 2.77D-01 4.87D-02.
     93 vectors produced by pass  3 Test12= 2.50D-14 1.04D-09 XBig12= 1.18D-03 4.22D-03.
     93 vectors produced by pass  4 Test12= 2.50D-14 1.04D-09 XBig12= 3.42D-06 1.92D-04.
     87 vectors produced by pass  5 Test12= 2.50D-14 1.04D-09 XBig12= 5.63D-09 5.16D-06.
     37 vectors produced by pass  6 Test12= 2.50D-14 1.04D-09 XBig12= 8.12D-12 2.32D-07.
      3 vectors produced by pass  7 Test12= 2.50D-14 1.04D-09 XBig12= 1.68D-14 1.31D-08.
      3 vectors produced by pass  8 Test12= 2.50D-14 1.04D-09 XBig12= 2.84D-15 5.17D-09.
      2 vectors produced by pass  9 Test12= 2.50D-14 1.04D-09 XBig12= 4.23D-16 2.64D-09.
 InvSVY:  IOpt=1 It=  1 EMax= 8.88D-15
 Solved reduced A of dimension   597 with    96 vectors.
 FullF1:  Do perturbations      1 to       3.
 Isotropic polarizability for W=    0.000000      220.54 Bohr**3.
 Dipole-magnetic dipole polarizability for W=    0.000000:
                 1             2             3 
      1  -0.156300D+02  0.133935D+01 -0.114475D+02
      2   0.253415D+02 -0.520947D+02  0.256644D+02
      3   0.944299D+01  0.104798D+03  0.657399D+02
 DQ contribution to OR G for W=    0.000000:
                 1             2             3 
      1  -0.257320D+02  0.434980D+00  0.275290D+02
      2   0.382382D+02 -0.903701D+02 -0.409041D+02
      3  -0.500960D+02  0.290362D+03  0.116102D+03
 Optical Rotation G' tensor for W=    0.000000:
                 1             2             3 
      1   0.389617D+00 -0.183607D+01 -0.231975D+01
      2  -0.183607D+01  0.246242D+01 -0.143323D+01
      3  -0.231975D+01 -0.143323D+01 -0.483684D+01
 OR G Eigenvalues:    -6.1872     0.6673     3.5351  Iso=     0.6616
 Eigenvectors:
   (1)   0.380056   0.229162   0.896126
   (2)   0.779193   0.442726  -0.443680
   (3)  -0.498413   0.866878  -0.010301
 w=    0.000000 a.u., Optical Rotation Beta=      0.6616 au.
 Molar Mass =    200.2828 grams/mole, [Alpha]D (static) =      127.68 deg.
 AAT (total):
 -0.1475 -0.0456 -0.1197
 -0.4656 -0.0043  0.3559
  0.1140  0.4082  0.2447
 -0.5344 -0.0431 -0.2910
 -0.5688  0.4795  0.0041
 -0.3552  0.2097 -0.1185
 -0.1891 -0.4077 -0.2359
 -0.2048  0.5345 -1.2013
  0.1228  0.8649 -0.2760
  0.6375  1.2771 -0.0493
  0.4602 -0.2956 -0.5474
 -0.1023 -1.0950 -0.3619
  0.2402 -0.9668  0.2031
  1.1052 -0.3801 -0.0215
  0.3755  0.4847  0.2037
 -0.0036 -0.0774  0.2491
  0.0972 -0.1452  0.3459
 -0.2298  0.0194  0.1463
  0.0256  0.0140  0.0460
 -0.0451 -0.0200 -0.0401
 -0.0626  0.0155  0.0004
 -0.1273  0.1665 -0.4521
  0.2446 -0.2610  0.3387
 -0.1776  0.1678  0.4270
  0.0595  0.0797  0.0697
 -0.1118 -0.2205  0.1910
  0.3752  0.4606  0.1649
  0.2230 -0.1069  0.3548
 -0.2370 -0.0164  0.0663
  0.7734  0.0348 -0.1700
  0.1090 -0.1294 -0.0023
 -0.1958  0.2252  0.0208
  0.5650 -0.5973 -0.3411
 -0.0231 -0.1340 -0.0141
 -0.1170  0.3415 -0.4924
 -0.0239 -0.3886 -0.3547
 -0.1418  0.1728 -0.3730
  0.0991  0.1448 -0.3816
 -0.3583 -0.0646  0.0377
 -0.0571 -0.0358  0.0670
  0.1173 -0.0122  0.0710
 -0.3844 -0.0912  0.0736
 -0.0231 -0.0537  0.0461
  0.1002  0.0176  0.1167
 -0.2103 -0.2327 -0.0067
 -0.0047  0.1833 -0.1552
 -0.1611 -0.0029 -0.0502
  0.0406  0.0453 -0.0844
 -0.0413 -0.2002 -0.0041
  0.0821 -0.0478  0.2854
  0.0204 -0.0522  0.0907
 -0.0142 -0.0447  0.1753
  0.0228 -0.0606  0.7978
 -0.1433 -0.6693  0.0762
  0.0231  0.1155  0.1650
 -0.0381 -0.0992  0.2478
 -0.0449 -0.1707  0.0800
  0.0441  0.1079  0.1004
  0.0374 -0.0882 -0.2312
  0.1419  0.0967  0.0530
  0.0479 -0.1968  0.0334
 -0.0382  0.0372 -0.0052
 -0.2714 -0.0252 -0.0654
 -0.1011  0.0713 -0.0656
 -0.0380  0.1037  0.2228
  0.1003 -0.0886  0.0132
  0.0020 -0.0046  0.0498
  0.0637 -0.1190  0.1267
 -0.0674  0.0972  0.0656
  0.0180 -0.0353  0.1455
  0.0349 -0.0867  0.1317
 -0.0783  0.1009  0.0683
  0.0011 -0.0253  0.1816
 -0.0009  0.0219 -0.1483
 -0.0887  0.1354 -0.0306
  0.0820  0.2839 -0.0299
 -0.1631  0.0253 -0.0692
 -0.1696 -0.0072 -0.0672
  0.0271 -0.0304  0.1097
  0.0001 -0.0948  0.3209
  0.1655 -0.0121  0.0613
 -0.1220 -0.2329 -0.1535
  0.1801  0.0278 -0.1582
  0.0030  0.0566  0.0558
 -0.0101  0.1779 -0.0980
 -0.1882 -0.1319 -0.1379
  0.0368 -0.3259  0.1944
 -0.0295 -0.0951 -0.2914
  0.1449  0.2194  0.1061
  0.0768  0.0420 -0.2496
  0.0283 -0.0408  0.2976
  0.0351 -0.0865  0.0543
 -0.0914  0.2524  0.0726
 End of Minotr F.D. properties file   721 does not exist.
 End of Minotr F.D. properties file   722 does not exist.
 End of Minotr F.D. properties file   788 does not exist.
 Leave Link 1002 at Sun Oct  9 18:42:52 2022, MaxMem=  3221225472 cpu:           12350.1 elap:             514.7
 (Enter /public/gkxiao/software/g16/l601.exe)
 Copying SCF densities to generalized density rwf, IOpCl= 0 IROHF=0.

 **********************************************************************

            Population analysis using the SCF density.

 **********************************************************************

 Orbital symmetries:
       Occupied  (A) (A) (A) (A) (A) (A) (A) (A) (A) (A) (A) (A)
                 (A) (A) (A) (A) (A) (A) (A) (A) (A) (A) (A) (A)
                 (A) (A) (A) (A) (A) (A) (A) (A) (A) (A) (A) (A)
                 (A) (A) (A) (A) (A) (A) (A) (A) (A) (A) (A) (A)
                 (A) (A) (A) (A) (A) (A)
       Virtual   (A) (A) (A) (A) (A) (A) (A) (A) (A) (A) (A) (A)
                 (A) (A) (A) (A) (A) (A) (A) (A) (A) (A) (A) (A)
                 (A) (A) (A) (A) (A) (A) (A) (A) (A) (A) (A) (A)
                 (A) (A) (A) (A) (A) (A) (A) (A) (A) (A) (A) (A)
                 (A) (A) (A) (A) (A) (A) (A) (A) (A) (A) (A) (A)
                 (A) (A) (A) (A) (A) (A) (A) (A) (A) (A) (A) (A)
                 (A) (A) (A) (A) (A) (A) (A) (A) (A) (A) (A) (A)
                 (A) (A) (A) (A) (A) (A) (A) (A) (A) (A) (A) (A)
                 (A) (A) (A) (A) (A) (A) (A) (A) (A) (A) (A) (A)
                 (A) (A) (A) (A) (A) (A) (A) (A) (A) (A) (A) (A)
                 (A) (A) (A) (A) (A) (A) (A) (A) (A) (A) (A) (A)
                 (A) (A) (A) (A) (A) (A) (A) (A) (A) (A) (A) (A)
                 (A) (A) (A) (A) (A) (A) (A) (A) (A) (A) (A) (A)
                 (A) (A) (A) (A) (A) (A) (A) (A) (A) (A) (A) (A)
                 (A) (A) (A) (A) (A) (A) (A) (A) (A) (A) (A) (A)
                 (A) (A) (A) (A) (A) (A) (A) (A) (A) (A) (A) (A)
                 (A) (A) (A) (A) (A) (A) (A) (A) (A) (A) (A) (A)
                 (A) (A) (A) (A) (A) (A) (A) (A) (A) (A) (A) (A)
                 (A) (A) (A) (A) (A) (A) (A) (A) (A) (A) (A) (A)
                 (A) (A) (A) (A) (A) (A) (A) (A) (A) (A) (A) (A)
                 (A) (A) (A) (A) (A) (A) (A) (A) (A) (A) (A) (A)
                 (A) (A) (A) (A) (A) (A) (A) (A) (A) (A) (A) (A)
                 (A) (A) (A) (A) (A) (A) (A) (A) (A) (A) (A) (A)
                 (A) (A) (A) (A) (A) (A) (A) (A) (A) (A) (A) (A)
                 (A) (A) (A) (A) (A) (A) (A) (A) (A) (A) (A) (A)
                 (A) (A) (A) (A) (A) (A) (A) (A) (A) (A) (A) (A)
                 (A) (A) (A) (A) (A) (A) (A) (A) (A) (A) (A) (A)
                 (A) (A) (A) (A) (A) (A) (A) (A) (A) (A) (A) (A)
                 (A) (A) (A) (A) (A) (A) (A) (A) (A) (A) (A) (A)
                 (A) (A) (A) (A) (A) (A) (A) (A) (A) (A) (A) (A)
                 (A) (A) (A) (A) (A) (A) (A) (A) (A) (A) (A) (A)
                 (A) (A) (A) (A) (A) (A) (A) (A) (A) (A) (A) (A)
                 (A) (A) (A) (A) (A) (A) (A) (A) (A) (A) (A) (A)
                 (A) (A) (A) (A) (A) (A) (A) (A) (A) (A) (A) (A)
                 (A) (A) (A) (A) (A) (A) (A) (A) (A) (A) (A) (A)
                 (A) (A) (A) (A) (A) (A) (A) (A) (A) (A) (A) (A)
                 (A) (A) (A) (A) (A) (A) (A) (A) (A) (A) (A) (A)
 The electronic state is 1-A.
 Alpha  occ. eigenvalues --  -14.40770 -14.33638 -10.25148 -10.22235 -10.21669
 Alpha  occ. eigenvalues --  -10.21034 -10.20653 -10.20562 -10.20524 -10.19418
 Alpha  occ. eigenvalues --  -10.19209 -10.19060 -10.18774 -10.18771 -10.18617
 Alpha  occ. eigenvalues --   -1.04462  -0.89966  -0.88366  -0.82610  -0.79522
 Alpha  occ. eigenvalues --   -0.77171  -0.74246  -0.71134  -0.68703  -0.66371
 Alpha  occ. eigenvalues --   -0.62435  -0.60690  -0.58982  -0.58111  -0.54846
 Alpha  occ. eigenvalues --   -0.51025  -0.49526  -0.46535  -0.45887  -0.44924
 Alpha  occ. eigenvalues --   -0.44622  -0.44339  -0.43315  -0.42714  -0.41022
 Alpha  occ. eigenvalues --   -0.40537  -0.39962  -0.39066  -0.38825  -0.37722
 Alpha  occ. eigenvalues --   -0.36034  -0.35399  -0.33843  -0.33482  -0.29594
 Alpha  occ. eigenvalues --   -0.29516  -0.25107  -0.24751  -0.23905
 Alpha virt. eigenvalues --   -0.00856  -0.00607   0.01171   0.01541   0.01931
 Alpha virt. eigenvalues --    0.02618   0.03142   0.03613   0.04179   0.04847
 Alpha virt. eigenvalues --    0.04977   0.05405   0.05681   0.06061   0.06554
 Alpha virt. eigenvalues --    0.07158   0.07329   0.08588   0.08846   0.09029
 Alpha virt. eigenvalues --    0.09367   0.09870   0.10125   0.11064   0.11230
 Alpha virt. eigenvalues --    0.11644   0.12344   0.12893   0.13129   0.14039
 Alpha virt. eigenvalues --    0.14480   0.14829   0.15358   0.15857   0.16303
 Alpha virt. eigenvalues --    0.16650   0.16839   0.17255   0.17624   0.18136
 Alpha virt. eigenvalues --    0.18203   0.18951   0.19245   0.19407   0.19998
 Alpha virt. eigenvalues --    0.20439   0.20757   0.20860   0.21355   0.21434
 Alpha virt. eigenvalues --    0.21809   0.22006   0.22417   0.22859   0.23015
 Alpha virt. eigenvalues --    0.23487   0.23761   0.24083   0.24501   0.24851
 Alpha virt. eigenvalues --    0.25336   0.25442   0.25699   0.26532   0.26893
 Alpha virt. eigenvalues --    0.27065   0.27198   0.28127   0.28512   0.28651
 Alpha virt. eigenvalues --    0.29452   0.29770   0.30466   0.31055   0.31415
 Alpha virt. eigenvalues --    0.31862   0.32093   0.32700   0.33553   0.34132
 Alpha virt. eigenvalues --    0.34431   0.36069   0.37470   0.37788   0.38013
 Alpha virt. eigenvalues --    0.39562   0.39952   0.41476   0.41594   0.43120
 Alpha virt. eigenvalues --    0.44195   0.44662   0.45276   0.46677   0.46951
 Alpha virt. eigenvalues --    0.47734   0.48836   0.50682   0.50766   0.51615
 Alpha virt. eigenvalues --    0.53226   0.53656   0.54431   0.54821   0.54832
 Alpha virt. eigenvalues --    0.55695   0.55852   0.56553   0.57057   0.58194
 Alpha virt. eigenvalues --    0.58903   0.59436   0.60030   0.60856   0.61436
 Alpha virt. eigenvalues --    0.61793   0.62483   0.62903   0.63562   0.64008
 Alpha virt. eigenvalues --    0.64177   0.64444   0.65529   0.66039   0.66630
 Alpha virt. eigenvalues --    0.66939   0.67424   0.68177   0.68412   0.68994
 Alpha virt. eigenvalues --    0.69369   0.69966   0.70427   0.71408   0.72279
 Alpha virt. eigenvalues --    0.73176   0.73503   0.73928   0.74546   0.74917
 Alpha virt. eigenvalues --    0.75500   0.76640   0.77507   0.77956   0.78239
 Alpha virt. eigenvalues --    0.78581   0.78959   0.79722   0.80884   0.81815
 Alpha virt. eigenvalues --    0.82697   0.83134   0.83493   0.83649   0.84623
 Alpha virt. eigenvalues --    0.85254   0.85793   0.86637   0.86893   0.88443
 Alpha virt. eigenvalues --    0.90139   0.90932   0.91101   0.92351   0.93644
 Alpha virt. eigenvalues --    0.94075   0.94594   0.95949   0.96337   0.98321
 Alpha virt. eigenvalues --    0.98913   1.00071   1.00547   1.01026   1.02099
 Alpha virt. eigenvalues --    1.03645   1.04019   1.05230   1.06985   1.08441
 Alpha virt. eigenvalues --    1.09300   1.09791   1.11602   1.12002   1.13413
 Alpha virt. eigenvalues --    1.16220   1.17355   1.18064   1.19008   1.20585
 Alpha virt. eigenvalues --    1.22132   1.23362   1.24157   1.25569   1.26727
 Alpha virt. eigenvalues --    1.27159   1.28327   1.29426   1.30245   1.31583
 Alpha virt. eigenvalues --    1.31902   1.32216   1.32859   1.34475   1.35075
 Alpha virt. eigenvalues --    1.36208   1.37125   1.37591   1.38464   1.39397
 Alpha virt. eigenvalues --    1.40956   1.41864   1.42528   1.43257   1.44223
 Alpha virt. eigenvalues --    1.45330   1.45744   1.46903   1.47917   1.49492
 Alpha virt. eigenvalues --    1.50230   1.50563   1.51012   1.52565   1.54305
 Alpha virt. eigenvalues --    1.57824   1.58370   1.60333   1.61086   1.62372
 Alpha virt. eigenvalues --    1.64141   1.65347   1.67075   1.68190   1.70530
 Alpha virt. eigenvalues --    1.72177   1.74207   1.74398   1.77345   1.78548
 Alpha virt. eigenvalues --    1.79026   1.79897   1.80021   1.82757   1.88021
 Alpha virt. eigenvalues --    1.89173   1.89834   1.90206   1.91267   1.91977
 Alpha virt. eigenvalues --    1.94193   1.95455   1.98207   1.99444   2.00432
 Alpha virt. eigenvalues --    2.02588   2.06720   2.08600   2.09495   2.12777
 Alpha virt. eigenvalues --    2.14797   2.16138   2.19662   2.20002   2.21912
 Alpha virt. eigenvalues --    2.24869   2.26488   2.27453   2.28495   2.29863
 Alpha virt. eigenvalues --    2.30439   2.34852   2.35661   2.36216   2.37619
 Alpha virt. eigenvalues --    2.38597   2.40148   2.41988   2.43547   2.44716
 Alpha virt. eigenvalues --    2.45406   2.47082   2.50320   2.54034   2.54438
 Alpha virt. eigenvalues --    2.55669   2.57444   2.61143   2.64102   2.65991
 Alpha virt. eigenvalues --    2.70209   2.71408   2.73553   2.74654   2.74943
 Alpha virt. eigenvalues --    2.76430   2.78049   2.79412   2.80444   2.81517
 Alpha virt. eigenvalues --    2.84144   2.85161   2.87395   2.87866   2.89472
 Alpha virt. eigenvalues --    2.91060   2.91254   2.92456   2.93834   2.95217
 Alpha virt. eigenvalues --    2.98424   3.00185   3.01582   3.03413   3.05379
 Alpha virt. eigenvalues --    3.07680   3.10428   3.11923   3.14214   3.14867
 Alpha virt. eigenvalues --    3.16308   3.18404   3.19503   3.22006   3.22214
 Alpha virt. eigenvalues --    3.24133   3.25901   3.27035   3.27948   3.29755
 Alpha virt. eigenvalues --    3.30100   3.31009   3.32224   3.32815   3.33249
 Alpha virt. eigenvalues --    3.34233   3.35733   3.37652   3.39285   3.40249
 Alpha virt. eigenvalues --    3.41269   3.42093   3.43877   3.44729   3.46585
 Alpha virt. eigenvalues --    3.47267   3.48979   3.49518   3.51327   3.53083
 Alpha virt. eigenvalues --    3.54442   3.55065   3.55550   3.56344   3.57897
 Alpha virt. eigenvalues --    3.59495   3.60283   3.61269   3.62108   3.62852
 Alpha virt. eigenvalues --    3.64303   3.65584   3.65937   3.66995   3.68907
 Alpha virt. eigenvalues --    3.69646   3.71019   3.72538   3.72609   3.74267
 Alpha virt. eigenvalues --    3.74523   3.76611   3.78482   3.81109   3.81847
 Alpha virt. eigenvalues --    3.82521   3.83089   3.85344   3.87954   3.89962
 Alpha virt. eigenvalues --    3.90725   3.91152   3.93906   3.94306   3.95564
 Alpha virt. eigenvalues --    3.97109   3.97348   3.99845   4.02195   4.04909
 Alpha virt. eigenvalues --    4.07199   4.07829   4.08751   4.12897   4.13336
 Alpha virt. eigenvalues --    4.14959   4.20940   4.22834   4.25076   4.27354
 Alpha virt. eigenvalues --    4.27846   4.31278   4.31661   4.32813   4.36358
 Alpha virt. eigenvalues --    4.38736   4.44021   4.51367   4.63853   4.67379
 Alpha virt. eigenvalues --    4.73956   4.76555   4.78538   4.93178   4.94217
 Alpha virt. eigenvalues --    4.95496   4.98036   5.02491   5.07236   5.11450
 Alpha virt. eigenvalues --    5.13986   5.18338   5.30298   5.35474   5.36630
 Alpha virt. eigenvalues --    5.47055   5.52963   5.65565   5.77469  23.72402
 Alpha virt. eigenvalues --   23.93826  24.02145  24.03269  24.07976  24.16240
 Alpha virt. eigenvalues --   24.18177  24.19964  24.23830  24.24298  24.25618
 Alpha virt. eigenvalues --   24.29944  24.51539  35.70265  35.78370
          Condensed to atoms (all electrons):
               1          2          3          4          5          6
     1  C   10.478112  -1.379721   0.159869  -0.165027   0.455489  -1.910330
     2  C   -1.379721   7.451316   0.182883  -0.106110   0.176373  -0.610113
     3  N    0.159869   0.182883   6.437075   0.348474   0.018995  -0.123108
     4  C   -0.165027  -0.106110   0.348474   5.116222   0.374283  -0.119165
     5  N    0.455489   0.176373   0.018995   0.374283   6.883941  -0.359685
     6  C   -1.910330  -0.610113  -0.123108  -0.119165  -0.359685  10.317160
     7  C    0.080631  -0.435143   0.003724  -0.009508   0.013069   0.413638
     8  C   -2.120061   0.641411  -0.075558  -0.086077  -0.022850  -0.471062
     9  C    1.616211   0.001995   0.032159   0.078390   0.073997  -2.299315
    10  C    0.097239  -0.205902   0.012918  -0.004976  -0.053860   0.627881
    11  C    0.488822   0.019200   0.001908   0.007900   0.015746  -0.966337
    12  C    0.174636   0.085504  -0.000092  -0.000634   0.000790  -1.064766
    13  C   -1.178156  -0.049033  -0.007580  -0.011138  -0.035447   1.920790
    14  C   -0.003439   0.018137   0.000377  -0.001655   0.002608  -0.473039
    15  C   -0.131391   0.002040  -0.000334  -0.001780  -0.002361   0.133110
    16  H   -0.163562   0.005350  -0.000868  -0.005757  -0.016975   0.421232
    17  H   -0.070723   0.410565  -0.040631   0.011657   0.005297   0.059920
    18  H    0.054660  -0.099959   0.392055  -0.026201   0.000030   0.002356
    19  H    0.048515  -0.025660  -0.051595   0.435789  -0.063054   0.009359
    20  H    0.068871   0.013461   0.000247   0.001429   0.000538  -0.017433
    21  H   -0.054727  -0.015700  -0.000542  -0.002573  -0.002319  -0.003229
    22  H    0.054961  -0.010431   0.000491   0.000961   0.000735  -0.121367
    23  H    0.004571   0.000977   0.004475   0.003969  -0.002445  -0.000260
    24  H   -0.002954   0.001086  -0.000059  -0.000230   0.000048  -0.004069
    25  H   -0.000806  -0.000064  -0.000001  -0.000017   0.000009   0.002750
    26  H    0.016138   0.000454   0.000005   0.000134   0.000139  -0.013111
    27  H    0.010328  -0.002962  -0.000059  -0.000441  -0.000252  -0.001921
    28  H   -0.004696  -0.000538  -0.000000   0.000029  -0.000001   0.011564
    29  H    0.001591   0.000064   0.000000  -0.000006  -0.000005  -0.004899
    30  H   -0.001004  -0.000040  -0.000000   0.000003  -0.000005  -0.001928
    31  H   -0.000117  -0.000011  -0.000000   0.000000   0.000004   0.002258
               7          8          9         10         11         12
     1  C    0.080631  -2.120061   1.616211   0.097239   0.488822   0.174636
     2  C   -0.435143   0.641411   0.001995  -0.205902   0.019200   0.085504
     3  N    0.003724  -0.075558   0.032159   0.012918   0.001908  -0.000092
     4  C   -0.009508  -0.086077   0.078390  -0.004976   0.007900  -0.000634
     5  N    0.013069  -0.022850   0.073997  -0.053860   0.015746   0.000790
     6  C    0.413638  -0.471062  -2.299315   0.627881  -0.966337  -1.064766
     7  C    5.945837  -0.456864  -0.033506   0.146696  -0.052471  -0.105161
     8  C   -0.456864   8.337317  -0.018398  -1.278026   0.447625   0.475643
     9  C   -0.033506  -0.018398   8.744813  -1.373698   0.957972   0.692208
    10  C    0.146696  -1.278026  -1.373698   7.871208  -0.187773  -0.503705
    11  C   -0.052471   0.447625   0.957972  -0.187773   8.373555   0.672695
    12  C   -0.105161   0.475643   0.692208  -0.503705   0.672695   7.305776
    13  C    0.162386  -0.070455  -2.091136   0.890526  -2.900132  -1.777279
    14  C   -0.072885   0.137632  -0.110801   0.072488   0.106686   0.358283
    15  C    0.006183  -0.241693  -0.159104   0.015541  -0.708022  -0.665345
    16  H   -0.022066   0.040666  -0.002177  -0.001823  -0.001295   0.007479
    17  H   -0.002092   0.010830  -0.016997  -0.000217  -0.000668  -0.000311
    18  H    0.000425  -0.001104   0.001252   0.000361  -0.000046   0.000043
    19  H    0.000459   0.001293  -0.001416  -0.000149  -0.000084  -0.000044
    20  H    0.364057  -0.054846   0.016954  -0.000011   0.000551   0.002214
    21  H    0.454500  -0.014436   0.007105   0.009443  -0.005489   0.006336
    22  H    0.438413   0.013763   0.001723   0.000085   0.002156  -0.001921
    23  H   -0.008879  -0.037996   0.461514  -0.103192   0.010812   0.014259
    24  H   -0.000294  -0.004707  -0.042110   0.451193  -0.073398   0.004281
    25  H    0.000003   0.013262   0.003842  -0.024655   0.388875  -0.060190
    26  H   -0.005935   0.034333   0.004594  -0.000952   0.027582   0.049225
    27  H   -0.010065  -0.013000   0.012013   0.004279  -0.002166   0.035931
    28  H    0.003854  -0.007183   0.000129  -0.004161  -0.005686  -0.024107
    29  H   -0.000430   0.001743   0.008724  -0.003605   0.052207   0.000464
    30  H    0.000818  -0.009740   0.003930  -0.004573  -0.001167  -0.069548
    31  H   -0.000035   0.004153  -0.006319   0.020427  -0.036675  -0.067587
              13         14         15         16         17         18
     1  C   -1.178156  -0.003439  -0.131391  -0.163562  -0.070723   0.054660
     2  C   -0.049033   0.018137   0.002040   0.005350   0.410565  -0.099959
     3  N   -0.007580   0.000377  -0.000334  -0.000868  -0.040631   0.392055
     4  C   -0.011138  -0.001655  -0.001780  -0.005757   0.011657  -0.026201
     5  N   -0.035447   0.002608  -0.002361  -0.016975   0.005297   0.000030
[...]
 5,-0.00174605,-0.00209981,0.00466575,-0.00250186,-0.00110625,0.0002436
 8,-0.08887417,-0.11562169,-0.16133485,-0.00640388,-0.01141680,-0.00684
 710,-0.00466784,0.00024054,0.00299295,-0.00002793,-0.00068041,-0.00027
 203,0.00274359,0.00022995,-0.00208548,-0.00002051,0.00007321,0.0000235
 3,0.00000059,0.00000089,0.00000135,-0.00000537,0.00000400,0.00000592,0
 .00000152,-0.00000470,0.00000149,-0.00000928,-0.00000443,0.00002461,0.
 00000418,-0.00000532,-0.00000163,0.00001888,-0.00000338,-0.00007108,-0
 .00029078,-0.00004930,0.00007160,0.00212528,0.00095042,-0.00176464,0.0
 9930995,0.12759688,0.16464565,0.00009067,-0.00006513,0.00008803,0.0000
 3627,-0.00001624,0.00000252,-0.00002282,0.00006655,-0.00002936,-0.0000
 0558,0.00002567,-0.00000457,-0.00000022,0.00002430,0.00002053,-0.00051
 437,-0.00042489,0.00020358,0.00025412,0.00010371,-0.00002340,-0.001935
 71,-0.00140445,-0.00169776,0.00028834,0.00083373,-0.00090465,-0.000408
 79,0.00020830,0.00007879,0.00053084,0.00037961,-0.00029225,0.00067577,
 0.00173067,-0.00022238,-0.01904275,0.00901170,0.01412650,-0.17689903,0
 .05410914,0.11968996,-0.00014887,-0.00031750,0.00079730,0.00007382,0.0
 0003002,0.00001287,0.00000262,-0.00000043,0.00000240,-0.00000132,-0.00
 000543,-0.00001052,-0.00000103,0.00000787,-0.00000037,-0.00007585,-0.0
 0004551,0.00006394,0.00000589,-0.00004708,-0.00002307,-0.00000102,-0.0
 0002661,0.00011272,-0.00017964,0.00013544,-0.00017489,-0.00008290,-0.0
 0005275,0.00003965,-0.00002578,-0.00008469,-0.00003529,0.19351439,0.00
 010704,0.00016948,-0.00010493,-0.00000460,0.00001767,0.00003207,-0.000
 00790,-0.00013347,0.00004891,0.00002514,-0.00006475,0.00000096,-0.0000
 1288,-0.00003328,0.00000788,-0.00013842,-0.00016437,-0.00008611,0.0000
 5481,0.00008705,0.00012177,0.00144068,0.00078125,0.00086294,-0.0001004
 7,-0.00075433,0.00032535,-0.00010111,0.00016859,-0.00002427,0.00024357
 ,-0.00036333,0.00032065,-0.00120085,-0.00098558,-0.00139659,0.01080110
 ,-0.00612525,-0.00539883,0.05362429,-0.06418857,-0.05271780,-0.0012377
 3,0.00077082,-0.00009335,0.00034075,0.00006955,-0.00002774,-0.00000017
 ,0.00000968,0.00000619,-0.00001549,0.00000160,0.00000869,0.00000230,-0
 .00000913,0.00000199,-0.00010759,-0.00008014,0.00014592,0.00003249,-0.
 00007049,0.00000876,0.00001266,-0.00003388,-0.00003070,0.00015481,-0.0
 0008252,0.00010214,0.00007008,0.00002221,-0.00002050,0.00002637,0.0000
 3019,0.00003072,-0.06228993,0.06982275,0.00008466,0.00005652,-0.000016
 55,0.00001417,0.00000523,0.00001885,-0.00001364,-0.00005443,0.00001448
 ,0.00000931,-0.00003045,-0.00000040,0.00000066,-0.00002052,0.00001172,
 -0.00048963,-0.00042398,0.00011390,0.00019377,0.00028567,0.00001664,-0
 .00138350,0.00057503,-0.00140260,0.00052538,0.00056574,-0.00061089,-0.
 00028034,0.00014275,-0.00002034,0.00075336,0.00043197,-0.00024367,-0.0
 0040447,-0.00114566,-0.00007175,-0.01273821,0.00550281,0.01318981,0.11
 827720,-0.05090519,-0.15214536,-0.00183093,-0.00007682,0.00027377,0.00
 029629,0.00007450,-0.00001565,-0.00000048,0.00000702,0.00000508,-0.000
 00898,0.00000008,0.00000193,0.00000195,-0.00000412,0.00000210,-0.00010
 733,-0.00014050,0.00018743,0.00003563,-0.00009853,-0.00001407,0.000013
 00,-0.00007896,0.00006558,-0.00011955,0.00006692,-0.00003641,-0.000059
 16,-0.00004880,0.00007136,0.00005771,-0.00005230,0.00003537,-0.1283363
 7,0.05472115,0.16562245,0.00048233,0.00030990,-0.00012476,0.00000496,-
 0.00004292,0.00008848,-0.00000534,-0.00023419,0.00004371,0.00002668,-0
 .00010568,0.00001953,-0.00000437,-0.00007921,0.00004877,-0.00073550,0.
 00031326,0.00012228,-0.00004437,0.00067984,0.00037632,0.00100614,-0.00
 125038,-0.00014000,-0.00012617,-0.00012631,-0.00010683,-0.00002495,0.0
 0023774,0.00011493,0.00011793,-0.00126052,-0.00089480,-0.00370459,0.00
 319137,-0.00234887,-0.00948444,-0.01987332,-0.01435969,-0.08927253,-0.
 07257037,-0.06671796,-0.00025073,0.00061934,0.00052660,0.00100839,0.00
 124454,-0.00005201,-0.00000244,0.00001641,0.00000937,-0.00003316,-0.00
 000346,0.00001326,0.00000393,-0.00002023,0.00000328,-0.00081302,0.0000
 5944,0.00071854,0.00015720,-0.00025388,-0.00006860,-0.00000059,-0.0001
 1566,0.00001817,0.00003456,-0.00000273,0.00001555,-0.00001848,0.000062
 17,0.00002633,-0.00041299,0.00010350,-0.00019026,0.01007643,0.01650526
 ,0.01305757,0.09562445,-0.00016256,0.00005414,0.00015630,0.00004804,-0
 .00003789,-0.00007782,-0.00004686,0.00010540,-0.00002297,-0.00001167,0
 .00003532,-0.00001846,-0.00000649,0.00005013,0.00003490,0.00342817,-0.
 00296322,0.00021610,-0.00001614,-0.00028683,-0.00013822,-0.00081637,-0
 .00026526,-0.00098748,-0.00012295,0.00021844,0.00011162,-0.00009586,-0
 .00004229,-0.00005240,0.00018335,0.00053589,0.00023623,0.00230303,-0.0
 0126884,0.00146915,0.00357485,0.01066756,0.00846747,-0.07557748,-0.174
 86270,-0.11775656,-0.00026870,-0.00053517,-0.00022716,0.00085631,-0.00
 383535,0.00034581,0.00000589,0.00000705,0.00001177,0.00001058,-0.00000
 188,-0.00001021,-0.00000110,0.00001171,-0.00000004,0.00006283,0.000063
 42,0.00006706,-0.00013467,0.00007010,0.00016691,0.00001297,-0.00011008
 ,0.00001993,-0.00006463,0.00003954,-0.00005489,-0.00002203,-0.00001912
 ,-0.00002803,0.00018488,-0.00000280,0.00006333,-0.00307985,-0.00597016
 ,-0.00346555,0.07812663,0.19446423,0.00054725,0.00017993,-0.00014760,0
 .00001789,-0.00007274,0.00007680,-0.00001791,-0.00015167,-0.00000476,0
 .00003094,-0.00003737,-0.00000578,-0.00001821,-0.00000156,0.00003133,0
 .00024520,-0.00094984,0.00045843,0.00026032,-0.00044550,0.00014861,0.0
 0028250,-0.00108021,-0.00020141,-0.00002483,0.00002604,-0.00003234,-0.
 00005240,0.00008110,0.00004026,-0.00025352,-0.00092664,-0.00026158,-0.
 00274575,0.00167373,-0.00023374,-0.00412921,-0.01067852,-0.01028501,-0
 .06834951,-0.11550579,-0.14965960,0.00007022,0.00045025,-0.00022430,0.
 00046201,0.00093846,0.00066516,0.00001297,0.00000474,0.00000439,-0.000
 02426,-0.00000817,0.00000350,0.00000218,-0.00000699,0.00000261,0.00047
 775,-0.00012310,-0.00026082,0.00001818,0.00009029,-0.00009896,-0.00001
 377,-0.00005584,-0.00002410,0.00001802,0.00002965,-0.00001803,-0.00000
 990,0.00005425,-0.00001024,-0.00019604,0.00013386,-0.00021739,-0.00852
 984,-0.01350956,-0.01198688,0.07505501,0.12770186,0.15982568,0.0001573
 2,-0.00000454,0.00007501,0.00002718,-0.00002968,0.00001627,-0.00001560
 ,0.00003329,-0.00002382,-0.00000255,0.00000415,0.00000372,-0.00000042,
 0.00001987,0.00001859,0.00005103,-0.00005192,-0.00049644,-0.00000111,0
 .00000651,-0.00008184,-0.00207494,-0.00010732,-0.00175289,-0.00106612,
 0.00000512,0.00110615,-0.00017823,0.00020920,-0.00023747,-0.00044088,-
 0.00004561,0.00101976,0.00042416,0.00007745,0.00012167,0.00569871,0.02
 335241,-0.01563555,-0.05909817,-0.05444517,0.03527047,0.00027446,0.000
 38955,-0.00111248,0.00024091,0.00012713,0.00001942,-0.00000009,0.00000
 021,-0.00000139,-0.00000376,-0.00000407,-0.00000631,-0.00000032,0.0000
 0276,-0.00000091,-0.00003029,0.00001381,0.00008694,0.00001938,-0.00000
 743,-0.00003288,0.00000131,-0.00003312,0.00003454,-0.00021253,0.000083
 91,-0.00010890,0.00007708,0.00004448,-0.00014224,0.00005259,-0.0000643
 6,-0.00002685,-0.00657447,-0.01839778,0.01191425,-0.00408334,-0.008281
 91,0.00708220,0.06704845,0.00030509,0.00015483,-0.00019975,-0.00002316
 ,-0.00002597,0.00004803,0.00001608,-0.00015459,0.00002944,0.00002636,-
 0.00004967,-0.00000025,-0.00001306,-0.00001207,-0.00000359,0.00004377,
 -0.00031732,0.00055512,-0.00015164,-0.00015178,0.00021427,0.00007416,0
 .00066702,0.00114209,0.00083696,-0.00029631,-0.00009514,-0.00016939,-0
 .00012605,-0.00008394,0.00028118,-0.00006196,0.00009530,-0.00034245,-0
 .00144386,-0.00197608,0.00156877,-0.00982049,0.00626917,-0.05667995,-0
 .20922842,0.11465924,-0.00104136,0.00118320,-0.00097017,0.00023637,0.0
 0055691,0.00005785,0.00000478,-0.00000061,-0.00000065,-0.00001621,-0.0
 0000022,0.00001227,0.00000215,-0.00001002,0.00000209,0.00004413,-0.000
 04617,-0.00011076,0.00004037,0.00007032,-0.00005804,-0.00000512,0.0000
 1599,-0.00006798,0.00019014,-0.00003372,0.00004655,0.00001169,-0.00001
 602,0.00005474,0.00005127,0.00002717,0.00005346,0.00225894,0.00729216,
 -0.00554591,-0.00550336,-0.01656474,0.01230754,0.05799105,0.22849760,0
 .00032098,0.00002430,-0.00000061,0.00001652,-0.00005198,0.00003497,-0.
 00001329,-0.00000944,-0.00001715,0.00000804,-0.00001778,0.00000447,-0.
 00000477,0.00002848,0.00001357,0.00020795,-0.00054450,0.00005373,-0.00
 004996,0.00013653,0.00010079,-0.00081484,-0.00096777,-0.00154154,-0.00
 046551,-0.00010940,0.00047695,-0.00019738,0.00016747,-0.00029228,-0.00
 021564,-0.00000120,0.00049369,-0.00103190,0.00049461,0.00086537,0.0023
 4019,0.01180319,-0.00869728,0.03603742,0.11517822,-0.12262548,0.000346
 07,0.00071470,-0.00040199,0.00025827,0.00038985,0.00002584,0.00000249,
 -0.00000202,-0.00000158,-0.00000872,-0.00000717,-0.00000206,-0.0000002
 3,-0.00000097,-0.00000069,0.00000821,-0.00001512,-0.00006885,0.0000151
 1,-0.00000791,-0.00004459,-0.00002064,0.00004216,0.00003762,-0.0001371
 6,0.00002328,-0.00002798,0.00003316,0.00000860,-0.00006682,0.00000190,
 -0.00003407,-0.00005751,0.00589697,0.01688487,-0.01214850,-0.00510109,
 -0.01606974,0.01199815,-0.03724519,-0.12681481,0.13211919,0.00002017,-
 0.00003309,0.00004774,0.00001997,-0.00001087,0.00000340,-0.00000809,0.
 00004122,-0.00001667,-0.00000576,0.00001379,-0.00000169,0.00000406,0.0
 0001394,0.00001325,-0.00008190,-0.00000607,-0.00001562,0.00004610,0.00
 004524,-0.00000786,-0.00009216,0.00028174,-0.00002870,-0.00011307,-0.0
 0005629,-0.00000378,0.00008618,0.00077614,-0.00047947,0.00037198,0.001
 16985,0.00149085,-0.00998131,0.00358273,0.00235211,-0.00094993,-0.0005
 0175,-0.00229152,0.00101068,-0.00133534,-0.00035089,-0.27599053,-0.009
 65705,0.08363771,0.00002555,0.00002009,0.00002184,0.00000005,-0.000001
 59,-0.00000150,0.00000082,-0.00000291,-0.00000502,-0.00000058,0.000003
 65,-0.00000057,-0.00000034,-0.00001772,0.00000003,-0.00000328,-0.00000
 982,-0.00000836,0.00000049,0.00000310,0.00003606,-0.00002959,0.0000162
 9,0.00006002,-0.00005951,0.00018141,-0.00002816,-0.00006109,-0.0001555
 4,0.00043456,0.00005206,0.00007865,0.00022933,0.00026025,-0.00011742,-
 0.00009235,-0.00018744,0.00010593,0.00029691,0.30113849,-0.00001000,0.
 00004704,-0.00002025,-0.00002566,0.00002680,-0.00001197,0.00001454,-0.
 00005147,0.00001634,-0.00000108,-0.00000002,0.00000247,-0.00001207,-0.
 00002864,-0.00002361,0.00002547,0.00010790,0.00001033,-0.00002574,-0.0
 0003382,-0.00001704,-0.00044591,-0.00020802,0.00109999,0.00035267,-0.0
 0025069,-0.00010913,-0.00033281,-0.00081868,0.00125162,0.00001839,-0.0
 0275382,-0.00123533,0.03052500,0.00018176,-0.01017215,0.00003084,0.000
 38135,0.00054057,0.00092432,0.00000151,-0.00102738,-0.00736318,-0.0437
 9688,0.00025602,-0.00003205,-0.00001059,-0.00002392,0.00000006,0.00000
 256,0.00000169,-0.00000116,0.00000444,0.00000516,-0.00000075,-0.000004
 03,-0.00000005,0.00000006,-0.00000420,0.00000158,-0.00000250,-0.000002
 76,0.00000684,0.00000670,-0.00000853,-0.00003019,0.00005617,0.00002585
 ,-0.00009197,0.00014516,-0.00025611,0.00000590,0.00038531,0.00019811,-
 0.00029382,-0.00078519,-0.00018434,-0.00044279,-0.00005294,-0.00004605
 ,0.00018534,-0.00046077,-0.00001993,0.00003906,0.00639853,0.04984473,-
 0.00001603,-0.00000045,0.00000556,-0.00000774,0.00000963,-0.00000738,0
 .00000649,-0.00000511,0.00000053,-0.00000424,0.00000749,0.00000189,-0.
 00000686,-0.00000759,-0.00001293,0.00003525,0.00004361,0.00000503,0.00
 000022,-0.00001054,-0.00001280,-0.00019080,0.00014636,0.00016720,0.000
 23559,-0.00015613,-0.00002161,0.00004116,0.00012099,-0.00022212,-0.000
 36319,0.00027303,-0.00026411,0.00269682,0.00109373,-0.00183244,-0.0002
 2896,-0.00105641,0.00034085,0.00099563,-0.00020244,-0.00006933,0.08372
 663,-0.00009474,-0.07299628,-0.00003031,-0.00001789,-0.00000313,0.0000
 0051,0.00000028,0.00000052,0.00000096,0.00000156,0.00000102,-0.0000000
 2,-0.00000014,0.00000009,0.00000949,0.00000060,-0.00001071,-0.00000792
 ,0.00000519,0.00000240,0.00000077,-0.00000038,-0.00000305,-0.00004371,
 -0.00000589,0.00005451,-0.00001886,-0.00002588,0.00002522,-0.00000602,
 -0.00002114,0.00030510,-0.00091252,-0.00059381,-0.00044601,-0.00021196
 ,0.00018859,0.00020702,0.00020189,0.00029886,-0.00012446,-0.09152847,-
 0.00135197,0.07662030,0.00000079,-0.00002975,0.00001653,0.00000843,-0.
 00000926,0.00000165,-0.00000500,0.00002954,-0.00001089,-0.00000271,0.0
 0000766,-0.00000021,0.00000139,0.00001009,0.00000517,-0.00000785,-0.00
 001897,-0.00000733,0.00002270,0.00002100,-0.00000839,-0.00041251,0.000
 12156,0.00016108,0.00004798,-0.00004072,-0.00000601,-0.00094069,0.0000
 0040,0.00058283,-0.00012068,0.00178247,0.00063471,-0.00226869,0.008491
 46,-0.01062120,-0.00011181,-0.00104639,-0.00099033,0.00065495,-0.00059
 145,0.00035232,-0.04105432,-0.00151695,-0.00179832,0.00000064,-0.00000
 567,0.00001215,0.00000035,-0.00000063,-0.00000040,0.00000253,-0.000001
 55,-0.00000230,-0.00000009,0.00000239,-0.00000015,0.00000842,-0.000005
 79,-0.00000918,-0.00000600,0.00000320,-0.00000334,-0.00000040,0.000002
 19,0.00002100,0.00007447,0.00006913,-0.00007794,-0.00007767,0.00014999
 ,-0.00000937,0.00045103,0.00022204,-0.00026055,-0.00013974,0.00002310,
 0.00043785,-0.00002807,0.00016247,0.00000995,0.00002141,-0.00015030,-0
 .00058111,-0.00037916,-0.01606995,0.02632961,0.04437101,-0.00004497,0.
 00005880,-0.00000440,-0.00002657,0.00002122,-0.00000831,0.00001563,-0.
 00004636,0.00001382,-0.00000400,-0.00000896,0.00000602,-0.00001241,-0.
 00002779,-0.00003020,0.00008204,0.00011260,0.00005248,-0.00002900,-0.0
 0003333,0.00000020,0.00072005,0.00048618,-0.00048183,0.00021326,-0.000
 40453,0.00024632,0.00116487,-0.00005607,-0.00076355,-0.00059856,-0.002
 59447,-0.00137923,0.00136911,-0.01695297,0.02503511,0.00134029,0.00053
 419,0.00010500,-0.00058735,-0.00023213,0.00091657,-0.00104122,-0.11805
 554,0.11766922,-0.00006877,-0.00003554,-0.00003499,0.00000133,0.000001
 56,0.00000277,-0.00000178,0.00000485,0.00000484,0.00000140,-0.00000420
 ,0.00000079,0.00000173,0.00000259,0.00000064,-0.00000658,0.00000055,0.
 00000914,-0.00000227,-0.00000304,-0.00003878,-0.00006390,-0.00004423,0
 .00005132,0.00018213,-0.00025160,-0.00004404,-0.00018440,-0.00009847,0
 .00038277,-0.00029975,-0.00001082,-0.00009224,0.00011392,0.00032109,-0
 .00016714,-0.00051345,-0.00023508,-0.00109700,-0.00043140,-0.00112606,
 0.00116197,-0.00232814,0.13009342,0.00002139,-0.00000112,0.00002713,0.
 00000357,-0.00001151,0.00000508,-0.00000637,0.00002292,-0.00000994,-0.
 00000305,-0.00000246,0.00000183,0.00000231,0.00001066,0.00000305,-0.00
 002048,0.00002342,0.00000635,0.00002462,0.00002744,0.00000271,0.000284
 64,0.00046569,-0.00023851,0.00001637,-0.00018374,-0.00003123,0.0000847
 8,0.00034343,0.00003016,0.00087210,-0.00012733,0.00002384,-0.00166709,
 -0.00188069,0.00757256,-0.00161897,-0.00065480,-0.00064850,-0.00001332
 ,-0.00176474,0.00077182,-0.00048893,0.11583883,-0.23394262,0.00001616,
 0.00000885,0.00000432,0.00000080,0.00000001,0.00000056,0.00000043,-0.0
 0000163,-0.00000216,0.00000065,0.00000105,-0.00000014,-0.00000261,-0.0
 0000050,-0.00000023,-0.00000591,0.00000103,-0.00000664,-0.00000440,0.0
 0000216,0.00001464,-0.00000703,0.00001966,0.00001574,-0.00002423,-0.00
 000064,0.00003481,0.00023188,0.00001447,0.00008956,0.00011791,0.000285
 54,-0.00041941,0.00015147,-0.00018278,0.00007255,-0.00011549,0.0001769
 6,-0.00049816,-0.00012988,0.00522811,-0.00993420,0.00085628,-0.1281884
 3,0.25358407,0.00002164,0.00002597,0.00001736,-0.00000357,0.00000386,0
 .00000591,0.00000163,-0.00001135,-0.00000296,-0.00000260,0.00000021,0.
 00000185,0.00000135,-0.00000970,-0.00000037,-0.00008384,0.00008638,0.0
 0005298,-0.00000275,0.00000689,0.00000805,0.00038982,0.00034204,0.0002
 2547,0.00003264,0.00001533,0.00000189,0.00013669,-0.00011268,0.0002173
 1,0.00046245,0.00140820,0.00106650,0.00599340,0.00643737,0.00913411,-0
 .00063942,0.00243157,-0.00036839,-0.00057603,-0.00033137,-0.00013363,-
 0.13283062,-0.07463290,-0.10402455,0.00000461,0.00000977,-0.00001194,0
 .00000072,0.00000111,0.00000115,-0.00000179,0.00000062,-0.00000005,0.0
 0000008,-0.00000126,0.00000008,-0.00000911,-0.00000399,0.00001517,0.00
 000318,-0.00000548,0.00000098,-0.00000118,-0.00000469,-0.00000467,0.00
 000686,-0.00001468,-0.00002161,0.00001620,-0.00007785,0.00001150,-0.00
 016465,0.00025223,-0.00021329,0.00045866,0.00007185,-0.00012950,0.0002
 4179,-0.00013329,-0.00013509,-0.00012372,0.00000681,0.00009726,-0.0150
 9307,-0.01326147,-0.02070340,-0.00011073,0.00103874,0.00142239,0.14187
 135,-0.00005545,0.00002585,-0.00018544,-0.00002267,0.00000561,0.000004
 86,0.00001567,-0.00008363,0.00004296,0.00001708,-0.00003979,-0.0000004
 3,-0.00000765,-0.00001411,-0.00000424,0.00026429,-0.00037118,0.0001495
 0,-0.00003380,-0.00003314,0.00003147,-0.00119130,-0.00016559,-0.001254
 98,0.00021862,0.00009547,0.00019246,0.00003848,-0.00011376,0.00007357,
 -0.00202890,0.00129293,-0.00100410,-0.01799331,-0.01544133,-0.02073273
 ,0.00343076,-0.00468373,-0.00004894,0.00055214,-0.00013312,0.00061386,
 -0.07128890,-0.10754127,-0.08542814,-0.00001231,0.00002362,0.00001284,
 -0.00000298,0.00000094,-0.00000144,-0.00000278,0.00000366,0.00001088,0
 .00000147,-0.00000613,0.00000141,-0.00000245,0.00000653,0.00001322,0.0
 0001044,-0.00000347,-0.00000481,0.00000624,-0.00000912,-0.00004103,0.0
 0007846,0.00000983,0.00005339,-0.00001753,0.00003324,0.00002738,0.0012
 2543,-0.00013819,0.00082950,0.00001977,0.00001141,0.00019139,-0.000088
 15,0.00016837,-0.00013639,0.00008621,0.00014979,-0.00018444,-0.0003954
 4,-0.00121741,0.00019860,0.01071682,0.00858414,0.01053015,0.07646176,0
 .11958356,0.00001092,0.00004513,-0.00006845,-0.00001024,0.00000437,0.0
 0000609,0.00001105,-0.00004936,0.00001406,0.00000276,-0.00001071,0.000
 00113,-0.00000433,-0.00001924,-0.00000325,0.00012344,-0.00005948,-0.00
 002796,-0.00003403,-0.00004105,-0.00000251,-0.00054748,0.00002852,-0.0
 0005696,0.00009748,0.00004206,0.00013310,0.00030174,-0.00004071,-0.000
 01836,-0.00055808,0.00175905,0.00033566,-0.00233757,-0.00141389,-0.004
 24299,0.00014234,-0.00086363,0.00095466,0.00022994,-0.00010195,-0.0003
 4012,-0.10244578,-0.08804100,-0.16838424,0.00003028,0.00001489,0.00001
 051,-0.00000079,0.00000150,-0.00000003,-0.00000278,0.00000206,0.000005
 06,0.00000041,-0.00000376,0.00000060,-0.00000886,0.00000405,0.00001389
 ,0.00000908,-0.00000349,-0.00000153,0.00000763,-0.00000587,-0.00003318
 ,0.00001680,-0.00002226,0.00004109,0.00004179,-0.00002448,-0.00002475,
 0.00022112,0.00005075,0.00044240,-0.00005643,0.00008768,-0.00005197,-0
 .00009231,-0.00016471,0.00013805,0.00004977,-0.00009587,0.00039319,0.0
 0636673,0.00620053,0.00822334,-0.01503409,-0.01332883,-0.01652904,0.11
 346949,0.09604970,0.17907251\\0.00003091,0.00001347,-0.00000312,-0.000
 01209,0.00003028,-0.00002273,-0.00000256,-0.00003690,0.00000531,-0.000
 02503,0.00007023,0.00001205,-0.00000368,-0.00005019,0.00001241,-0.0000
 1401,0.00001030,0.00002172,0.00000842,-0.00000524,-0.00002209,-0.00001
 503,-0.00000650,-0.00001762,0.00001180,-0.00001376,0.00001192,0.000010
 40,-0.00001692,0.00000202,0.00000262,0.00000417,0.00000412,0.00000645,
 0.00001958,0.00000713,-0.00001070,0.00000481,-0.00001551,0.00000758,-0
 .00000414,0.00000022,0.00000155,-0.00001382,0.00000087,-0.00000339,-0.
 00000224,0.00000140,0.00001149,-0.00001416,-0.00000713,0.00000837,0.00
 000841,-0.00000552,-0.00000465,-0.00001488,-0.00000260,0.00000432,-0.0
 0000495,0.00000422,-0.00000229,0.00000280,0.,0.00000343,0.00000421,0.0
 0000553,-0.00000111,-0.00000696,-0.00000360,0.00000189,-0.00000293,0.0
 0000192,-0.00000104,0.00000094,0.00000212,-0.00000610,0.00000129,-0.00
 000183,0.00000135,0.00001075,0.00000056,-0.00000487,0.00000038,0.00000
 799,0.00000104,0.00000478,-0.00000310,0.00000104,0.00000512,0.00000477
 ,-0.00000612,0.00000210,-0.00000144\\\@


 BLACK HOLES SUCK.
 Job cpu time:       0 days  7 hours 39 minutes 31.0 seconds.
 Elapsed time:       0 days  0 hours 19 minutes 24.4 seconds.
 File lengths (MBytes):  RWF=    758 Int=      0 D2E=      0 Chk=     30 Scr=      1
 Normal termination of Gaussian 16 at Sun Oct  9 18:49:32 2022.
