 Entering Gaussian System, Link 0=g16
 Input=CONF_01_NMR.com
 Output=CONF_01_NMR.log
 Initial command:
 /public/gkxiao/software/g16/l1.exe "/home/gkxiao/tmp/Gau-563314.inp" -scrdir="/home/gkxiao/tmp/"
 Default is to use a total of  24 processors:
                               24 via shared-memory
                                1 via Linda
 Entering Link 1 = /public/gkxiao/software/g16/l1.exe PID=    563316.
  
 Copyright (c) 1988,1990,1992,1993,1995,1998,2003,2009,2016,
            Gaussian, Inc.  All Rights Reserved.
  
 This is part of the Gaussian(R) 16 program.  It is based on
 the Gaussian(R) 09 system (copyright 2009, Gaussian, Inc.),
 the Gaussian(R) 03 system (copyright 2003, Gaussian, Inc.),
 the Gaussian(R) 98 system (copyright 1998, Gaussian, Inc.),
 the Gaussian(R) 94 system (copyright 1995, Gaussian, Inc.),
 the Gaussian 92(TM) system (copyright 1992, Gaussian, Inc.),
 the Gaussian 90(TM) system (copyright 1990, Gaussian, Inc.),
 the Gaussian 88(TM) system (copyright 1988, Gaussian, Inc.),
 the Gaussian 86(TM) system (copyright 1986, Carnegie Mellon
 University), and the Gaussian 82(TM) system (copyright 1983,
 Carnegie Mellon University). Gaussian is a federally registered
 trademark of Gaussian, Inc.
  
 This software contains proprietary and confidential information,
 including trade secrets, belonging to Gaussian, Inc.
  
 This software is provided under written license and may be
 used, copied, transmitted, or stored only in accord with that
 written license.
  
 The following legend is applicable only to US Government
 contracts under FAR:
  
                    RESTRICTED RIGHTS LEGEND
  
 Use, reproduction and disclosure by the US Government is
 subject to restrictions as set forth in subparagraphs (a)
 and (c) of the Commercial Computer Software - Restricted
 Rights clause in FAR 52.227-19.
  
 Gaussian, Inc.
 340 Quinnipiac St., Bldg. 40, Wallingford CT 06492
  
  
 ---------------------------------------------------------------
 Warning -- This program may not be used in any manner that
 competes with the business of Gaussian, Inc. or will provide
 assistance to any competitor of Gaussian, Inc.  The licensee
 of this program is prohibited from giving any competitor of
 Gaussian, Inc. access to this program.  By using this program,
 the user acknowledges that Gaussian, Inc. is engaged in the
 business of creating and licensing software in the field of
 computational chemistry and represents and warrants to the
 licensee that it is not a competitor of Gaussian, Inc. and that
 it will not use this program in any manner prohibited above.
 ---------------------------------------------------------------
  

 Cite this work as:
 Gaussian 16, Revision A.03,
 M. J. Frisch, G. W. Trucks, H. B. Schlegel, G. E. Scuseria, 
 M. A. Robb, J. R. Cheeseman, G. Scalmani, V. Barone, 
 G. A. Petersson, H. Nakatsuji, X. Li, M. Caricato, A. V. Marenich, 
 J. Bloino, B. G. Janesko, R. Gomperts, B. Mennucci, H. P. Hratchian, 
 J. V. Ortiz, A. F. Izmaylov, J. L. Sonnenberg, D. Williams-Young, 
 F. Ding, F. Lipparini, F. Egidi, J. Goings, B. Peng, A. Petrone, 
 T. Henderson, D. Ranasinghe, V. G. Zakrzewski, J. Gao, N. Rega, 
 G. Zheng, W. Liang, M. Hada, M. Ehara, K. Toyota, R. Fukuda, 
 J. Hasegawa, M. Ishida, T. Nakajima, Y. Honda, O. Kitao, H. Nakai, 
 T. Vreven, K. Throssell, J. A. Montgomery, Jr., J. E. Peralta, 
 F. Ogliaro, M. J. Bearpark, J. J. Heyd, E. N. Brothers, K. N. Kudin, 
 V. N. Staroverov, T. A. Keith, R. Kobayashi, J. Normand, 
 K. Raghavachari, A. P. Rendell, J. C. Burant, S. S. Iyengar, 
 J. Tomasi, M. Cossi, J. M. Millam, M. Klene, C. Adamo, R. Cammi, 
 J. W. Ochterski, R. L. Martin, K. Morokuma, O. Farkas, 
 J. B. Foresman, and D. J. Fox, Gaussian, Inc., Wallingford CT, 2016.
 
 ******************************************
 Gaussian 16:  ES64L-G16RevA.03 25-Dec-2016
                 9-Oct-2022 
 ******************************************
 %oldchk=CONF_01.chk
 %chk=CONF_01_NMR.chk
 Copying data from "CONF_01.chk" to current chk file "CONF_01_NMR.chk"
 IOpt=  2 FromEx=T IUOpen= 4 IOptOp= 5 NList=   0 IFRang= 0 IUIn= 4 IUOut= 2.
 -------------------------------------------------------------
 #P mPW1PW91/6-311+G(2d,p) guess=read geom=allcheck scrf=check
 -------------------------------------------------------------
 1/29=7,38=1,40=1,172=1/1;
 2/12=2,40=1/2;
 3/5=4,6=6,7=112,11=2,14=-4,25=1,30=1,70=2,74=-7,116=-2/1,2,3;
 4/5=1/1;
 5/5=2,38=6/2;
 6/7=2,8=2,9=2,10=2,28=1/1;
 99/5=1,9=1/99;
 Leave Link    1 at Sun Oct  9 18:27:14 2022, MaxMem=  3221225472 cpu:               1.8 elap:               0.1
 (Enter /public/gkxiao/software/g16/l101.exe)
 Structure from the checkpoint file:  "CONF_01_NMR.chk"
 -------------------------------------------------------------------
 Structure: CONF_1 Calculation: Opt Freq at APFD/6-311+g(2d,p) level
 -------------------------------------------------------------------
 Charge =  0 Multiplicity = 1
 Redundant internal coordinates found in file.  (old form).
 C,0,-0.9196407215,3.054591346,0.538938893
 C,0,-1.698811226,4.0090437767,1.1349839174
 N,0,-1.5207718657,5.1482063241,0.3939687675
 C,0,-0.658798478,4.852010705,-0.6023210598
 N,0,-0.2736721703,3.598073207,-0.5482429956
 C,0,-0.7345425767,1.6177385865,0.9086704152
 C,0,-1.2799525716,1.3121472022,2.3061837268
 C,0,-1.3519057418,0.6651137906,-0.105080409
 C,0,-2.4844450863,1.0678748258,-0.8126357131
 C,0,-3.1113073509,0.2158955444,-1.706763348
 C,0,-2.6016145354,-1.0595249736,-1.9067122498
 C,0,-1.4754147911,-1.4911895168,-1.2131582223
 C,0,-0.8443283165,-0.6291443834,-0.2974676179
 C,0,0.353472058,-1.1457887695,0.4516165374
 C,0,-0.9478747209,-2.8778881111,-1.4467888073
 H,0,0.347452964,1.4492829595,0.9175810365
 H,0,-2.3458549745,3.9838776273,1.9959336334
 H,0,-1.9467259603,6.0454125354,0.5662105593
 H,0,-0.3432469164,5.5830452525,-1.3318237214
 H,0,-1.0939751588,0.2697681026,2.5729488711
 H,0,-2.3613635905,1.4718725512,2.3394868443
 H,0,-0.8141187494,1.9503300023,3.0618117595
 H,0,-2.8700139093,2.0706920285,-0.6582564163
 H,0,-3.9913927189,0.5453720064,-2.2506210248
 H,0,-3.0824781555,-1.733025127,-2.6105880203
 H,0,1.1383620538,-1.4726555994,-0.2375719456
 H,0,0.7910439656,-0.409640914,1.1222546004
 H,0,0.0874760301,-2.0188874482,1.0563810195
 H,0,0.0829569575,-2.8610192169,-1.8152555017
 H,0,-0.9390383096,-3.4673671276,-0.5242794731
 H,0,-1.5566754331,-3.4102171863,-2.1793040553
 Recover connectivity data from disk.
 ITRead=  0  0  0  0  0  0  0  0  0  0  0  0  0  0  0  0  0  0  0  0
 ITRead=  0  0  0  0  0  0  0  0  0  0  0
 MicOpt= -1 -1 -1 -1 -1 -1 -1 -1 -1 -1 -1 -1 -1 -1 -1 -1 -1 -1 -1 -1
 MicOpt= -1 -1 -1 -1 -1 -1 -1 -1 -1 -1 -1
                           ----------------------------
                           !    Current Parameters    !
                           ! (Angstroms and Degrees)  !
 --------------------------                            --------------------------
 ! Name  Definition              Value                                          !
 --------------------------------------------------------------------------------
 ! R1    R(1,2)                  1.3687                                         !
 ! R2    R(1,5)                  1.3764                                         !
 ! R3    R(1,6)                  1.4952                                         !
 ! R4    R(2,3)                  1.3706                                         !
 ! R5    R(2,17)                 1.0773                                         !
 ! R6    R(3,4)                  1.3503                                         !
 ! R7    R(3,18)                 1.008                                          !
 ! R8    R(4,5)                  1.3129                                         !
 ! R9    R(4,19)                 1.0799                                         !
 ! R10   R(6,7)                  1.531                                          !
 ! R11   R(6,8)                  1.5219                                         !
 ! R12   R(6,16)                 1.0951                                         !
 ! R13   R(7,20)                 1.0919                                         !
 ! R14   R(7,21)                 1.0937                                         !
 ! R15   R(7,22)                 1.0933                                         !
 ! R16   R(8,9)                  1.3948                                         !
 ! R17   R(8,13)                 1.4035                                         !
 ! R18   R(9,10)                 1.385                                          !
 ! R19   R(9,23)                 1.0854                                         !
 ! R20   R(10,11)                1.388                                          !
 ! R21   R(10,24)                1.0858                                         !
 ! R22   R(11,12)                1.3913                                         !
 ! R23   R(11,25)                1.0864                                         !
 ! R24   R(12,13)                1.4071                                         !
 ! R25   R(12,15)                1.5019                                         !
 ! R26   R(13,14)                1.5043                                         !
 ! R27   R(14,26)                1.0945                                         !
 ! R28   R(14,27)                1.0877                                         !
 ! R29   R(14,28)                1.0949                                         !
 ! R30   R(15,29)                1.0948                                         !
 ! R31   R(15,30)                1.0948                                         !
 ! R32   R(15,31)                1.0911                                         !
 ! A1    A(2,1,5)              109.6202                                         !
 ! A2    A(2,1,6)              129.2667                                         !
 ! A3    A(5,1,6)              121.1087                                         !
 ! A4    A(1,2,3)              105.6762                                         !
 ! A5    A(1,2,17)             132.3504                                         !
 ! A6    A(3,2,17)             121.9734                                         !
 ! A7    A(2,3,4)              107.4286                                         !
 ! A8    A(2,3,18)             126.3356                                         !
 ! A9    A(4,3,18)             126.2327                                         !
 ! A10   A(3,4,5)              111.4924                                         !
 ! A11   A(3,4,19)             122.4434                                         !
 ! A12   A(5,4,19)             126.0632                                         !
 ! A13   A(1,5,4)              105.7826                                         !
 ! A14   A(1,6,7)              111.9283                                         !
 ! A15   A(1,6,8)              112.7421                                         !
 ! A16   A(1,6,16)             105.7931                                         !
 ! A17   A(7,6,8)              109.79                                           !
 ! A18   A(7,6,16)             108.2922                                         !
 ! A19   A(8,6,16)             108.0551                                         !
 ! A20   A(6,7,20)             110.6636                                         !
 ! A21   A(6,7,21)             110.5428                                         !
 ! A22   A(6,7,22)             111.2597                                         !
 ! A23   A(20,7,21)            107.4814                                         !
 ! A24   A(20,7,22)            108.4103                                         !
 ! A25   A(21,7,22)            108.3621                                         !
 ! A26   A(6,8,9)              119.1119                                         !
 ! A27   A(6,8,13)             121.4543                                         !
 ! A28   A(9,8,13)             119.367                                          !
 ! A29   A(8,9,10)             121.1549                                         !
 ! A30   A(8,9,23)             118.8856                                         !
 ! A31   A(10,9,23)            119.9582                                         !
 ! A32   A(9,10,11)            119.4755                                         !
 ! A33   A(9,10,24)            120.236                                          !
 ! A34   A(11,10,24)           120.2878                                         !
 ! A35   A(10,11,12)           120.7001                                         !
 ! A36   A(10,11,25)           120.0304                                         !
 ! A37   A(12,11,25)           119.2695                                         !
 ! A38   A(11,12,13)           119.8267                                         !
 ! A39   A(11,12,15)           119.5532                                         !
 ! A40   A(13,12,15)           120.6197                                         !
 ! A41   A(8,13,12)            119.4703                                         !
 ! A42   A(8,13,14)            122.4419                                         !
 ! A43   A(12,13,14)           118.0855                                         !
 ! A44   A(13,14,26)           111.1026                                         !
 ! A45   A(13,14,27)           113.2606                                         !
 ! A46   A(13,14,28)           110.8235                                         !
 ! A47   A(26,14,27)           107.57                                           !
 ! A48   A(26,14,28)           106.4921                                         !
 ! A49   A(27,14,28)           107.2692                                         !
 ! A50   A(12,15,29)           111.6436                                         !
 ! A51   A(12,15,30)           111.6469                                         !
 ! A52   A(12,15,31)           111.0318                                         !
 ! A53   A(29,15,30)           106.516                                          !
 ! A54   A(29,15,31)           107.8732                                         !
 ! A55   A(30,15,31)           107.9087                                         !
 ! D1    D(5,1,2,3)              0.0457                                         !
 ! D2    D(5,1,2,17)          -179.8884                                         !
 ! D3    D(6,1,2,3)           -179.1907                                         !
 ! D4    D(6,1,2,17)             0.8752                                         !
 ! D5    D(2,1,5,4)             -0.0312                                         !
 ! D6    D(6,1,5,4)            179.2783                                         !
 ! D7    D(2,1,6,7)            -13.7904                                         !
 ! D8    D(2,1,6,8)            110.5767                                         !
 ! D9    D(2,1,6,16)          -131.5316                                         !
 ! D10   D(5,1,6,7)            167.0497                                         !
 ! D11   D(5,1,6,8)            -68.5832                                         !
 ! D12   D(5,1,6,16)            49.3085                                         !
 ! D13   D(1,2,3,4)             -0.0424                                         !
 ! D14   D(1,2,3,18)          -179.4341                                         !
 ! D15   D(17,2,3,4)           179.9002                                         !
 ! D16   D(17,2,3,18)            0.5085                                         !
 ! D17   D(2,3,4,5)              0.0249                                         !
 ! D18   D(2,3,4,19)          -179.6486                                         !
 ! D19   D(18,3,4,5)           179.4174                                         !
 ! D20   D(18,3,4,19)           -0.2561                                         !
 ! D21   D(3,4,5,1)              0.0036                                         !
 ! D22   D(19,4,5,1)           179.6628                                         !
 ! D23   D(1,6,7,20)          -177.4443                                         !
 ! D24   D(1,6,7,21)            63.597                                          !
 ! D25   D(1,6,7,22)           -56.8526                                         !
 ! D26   D(8,6,7,20)            56.5585                                         !
 ! D27   D(8,6,7,21)           -62.4002                                         !
 ! D28   D(8,6,7,22)           177.1502                                         !
 ! D29   D(16,6,7,20)          -61.2075                                         !
 ! D30   D(16,6,7,21)          179.8338                                         !
 ! D31   D(16,6,7,22)           59.3842                                         !
 ! D32   D(1,6,8,9)            -30.8786                                         !
 ! D33   D(1,6,8,13)           152.1116                                         !
 ! D34   D(7,6,8,9)             94.6544                                         !
 ! D35   D(7,6,8,13)           -82.3555                                         !
 ! D36   D(16,6,8,9)          -147.4322                                         !
 ! D37   D(16,6,8,13)           35.5579                                         !
 ! D38   D(6,8,9,10)          -177.458                                          !
 ! D39   D(6,8,9,23)             2.9607                                         !
 ! D40   D(13,8,9,10)           -0.3848                                         !
 ! D41   D(13,8,9,23)         -179.9662                                         !
 ! D42   D(6,8,13,12)          177.8461                                         !
 ! D43   D(6,8,13,14)           -1.588                                          !
 ! D44   D(9,8,13,12)            0.8437                                         !
 ! D45   D(9,8,13,14)         -178.5904                                         !
 ! D46   D(8,9,10,11)           -0.2404                                         !
 ! D47   D(8,9,10,24)         -179.922                                          !
 ! D48   D(23,9,10,11)         179.3365                                         !
 ! D49   D(23,9,10,24)          -0.3451                                         !
 ! D50   D(9,10,11,12)           0.4022                                         !
 ! D51   D(9,10,11,25)        -179.6139                                         !
 ! D52   D(24,10,11,12)       -179.9164                                         !
 ! D53   D(24,10,11,25)          0.0675                                         !
 ! D54   D(10,11,12,13)          0.0636                                         !
 ! D55   D(10,11,12,15)        179.8389                                         !
 ! D56   D(25,11,12,13)       -179.9205                                         !
 ! D57   D(25,11,12,15)         -0.1451                                         !
 ! D58   D(11,12,13,8)          -0.6884                                         !
 ! D59   D(11,12,13,14)        178.7703                                         !
 ! D60   D(15,12,13,8)         179.5387                                         !
 ! D61   D(15,12,13,14)         -1.0026                                         !
 ! D62   D(11,12,15,29)        120.2779                                         !
 ! D63   D(11,12,15,30)       -120.6089                                         !
 ! D64   D(11,12,15,31)         -0.1418                                         !
 ! D65   D(13,12,15,29)        -59.9485                                         !
 ! D66   D(13,12,15,30)         59.1646                                         !
 ! D67   D(13,12,15,31)        179.6317                                         !
 ! D68   D(8,13,14,26)        -122.9246                                         !
 ! D69   D(8,13,14,27)          -1.7206                                         !
 ! D70   D(8,13,14,28)         118.8896                                         !
 ! D71   D(12,13,14,26)         57.6338                                         !
 ! D72   D(12,13,14,27)        178.8378                                         !
 ! D73   D(12,13,14,28)        -60.552                                          !
 --------------------------------------------------------------------------------
 NAtoms=     31 NQM=       31 NQMF=       0 NMMI=      0 NMMIF=      0
                NMic=       0 NMicF=      0.
                    Isotopes and Nuclear Properties:
 (Nuclear quadrupole moments (NQMom) in fm**2, nuclear magnetic moments (NMagM)
  in nuclear magnetons)

  Atom         1           2           3           4           5           6           7           8           9          10
 IAtWgt=          12          12          14          12          14          12          12          12          12          12
 AtmWgt=  12.0000000  12.0000000  14.0030740  12.0000000  14.0030740  12.0000000  12.0000000  12.0000000  12.0000000  12.0000000
 NucSpn=           0           0           2           0           2           0           0           0           0           0
 AtZEff=   3.6000000   3.6000000   4.5500000   3.6000000   4.5500000   3.6000000   3.6000000   3.6000000   3.6000000   3.6000000
 NQMom=    0.0000000   0.0000000   2.0440000   0.0000000   2.0440000   0.0000000   0.0000000   0.0000000   0.0000000   0.0000000
 NMagM=    0.0000000   0.0000000   0.4037610   0.0000000   0.4037610   0.0000000   0.0000000   0.0000000   0.0000000   0.0000000
 AtZNuc=   6.0000000   6.0000000   7.0000000   6.0000000   7.0000000   6.0000000   6.0000000   6.0000000   6.0000000   6.0000000

  Atom        11          12          13          14          15          16          17          18          19          20
 IAtWgt=          12          12          12          12          12           1           1           1           1           1
 AtmWgt=  12.0000000  12.0000000  12.0000000  12.0000000  12.0000000   1.0078250   1.0078250   1.0078250   1.0078250   1.0078250
 NucSpn=           0           0           0           0           0           1           1           1           1           1
 AtZEff=   3.6000000   3.6000000   3.6000000   3.6000000   3.6000000   1.0000000   1.0000000   1.0000000   1.0000000   1.0000000
 NQMom=    0.0000000   0.0000000   0.0000000   0.0000000   0.0000000   0.0000000   0.0000000   0.0000000   0.0000000   0.0000000
 NMagM=    0.0000000   0.0000000   0.0000000   0.0000000   0.0000000   2.7928460   2.7928460   2.7928460   2.7928460   2.7928460
 AtZNuc=   6.0000000   6.0000000   6.0000000   6.0000000   6.0000000   1.0000000   1.0000000   1.0000000   1.0000000   1.0000000

  Atom        21          22          23          24          25          26          27          28          29          30
 IAtWgt=           1           1           1           1           1           1           1           1           1           1
 AtmWgt=   1.0078250   1.0078250   1.0078250   1.0078250   1.0078250   1.0078250   1.0078250   1.0078250   1.0078250   1.0078250
 NucSpn=           1           1           1           1           1           1           1           1           1           1
 AtZEff=   1.0000000   1.0000000   1.0000000   1.0000000   1.0000000   1.0000000   1.0000000   1.0000000   1.0000000   1.0000000
 NQMom=    0.0000000   0.0000000   0.0000000   0.0000000   0.0000000   0.0000000   0.0000000   0.0000000   0.0000000   0.0000000
 NMagM=    2.7928460   2.7928460   2.7928460   2.7928460   2.7928460   2.7928460   2.7928460   2.7928460   2.7928460   2.7928460
 AtZNuc=   1.0000000   1.0000000   1.0000000   1.0000000   1.0000000   1.0000000   1.0000000   1.0000000   1.0000000   1.0000000

  Atom        31
 IAtWgt=           1
 AtmWgt=   1.0078250
 NucSpn=           1
 AtZEff=   1.0000000
 NQMom=    0.0000000
 NMagM=    2.7928460
 AtZNuc=   1.0000000
 Leave Link  101 at Sun Oct  9 18:27:15 2022, MaxMem=  3221225472 cpu:              17.5 elap:               0.7
 (Enter /public/gkxiao/software/g16/l202.exe)
                          Input orientation:                          
 ---------------------------------------------------------------------
 Center     Atomic      Atomic             Coordinates (Angstroms)
 Number     Number       Type             X           Y           Z
 ---------------------------------------------------------------------
      1          6           0       -0.919641    3.054591    0.538939
      2          6           0       -1.698811    4.009044    1.134984
      3          7           0       -1.520772    5.148206    0.393969
      4          6           0       -0.658798    4.852011   -0.602321
      5          7           0       -0.273672    3.598073   -0.548243
      6          6           0       -0.734543    1.617739    0.908670
      7          6           0       -1.279953    1.312147    2.306184
      8          6           0       -1.351906    0.665114   -0.105080
      9          6           0       -2.484445    1.067875   -0.812636
     10          6           0       -3.111307    0.215896   -1.706763
     11          6           0       -2.601615   -1.059525   -1.906712
     12          6           0       -1.475415   -1.491190   -1.213158
     13          6           0       -0.844328   -0.629144   -0.297468
     14          6           0        0.353472   -1.145789    0.451617
     15          6           0       -0.947875   -2.877888   -1.446789
     16          1           0        0.347453    1.449283    0.917581
     17          1           0       -2.345855    3.983878    1.995934
     18          1           0       -1.946726    6.045413    0.566211
     19          1           0       -0.343247    5.583045   -1.331824
     20          1           0       -1.093975    0.269768    2.572949
     21          1           0       -2.361364    1.471873    2.339487
     22          1           0       -0.814119    1.950330    3.061812
     23          1           0       -2.870014    2.070692   -0.658256
     24          1           0       -3.991393    0.545372   -2.250621
     25          1           0       -3.082478   -1.733025   -2.610588
     26          1           0        1.138362   -1.472656   -0.237572
     27          1           0        0.791044   -0.409641    1.122255
     28          1           0        0.087476   -2.018887    1.056381
     29          1           0        0.082957   -2.861019   -1.815256
     30          1           0       -0.939038   -3.467367   -0.524279
     31          1           0       -1.556675   -3.410217   -2.179304
 ---------------------------------------------------------------------
                    Distance matrix (angstroms):
                    1          2          3          4          5
     1  C    0.000000
     2  C    1.368706   0.000000
     3  N    2.183025   1.370581   0.000000
     4  C    2.145048   2.193273   1.350305   0.000000
     5  N    1.376449   2.243473   2.201348   1.312862   0.000000
     6  C    1.495162   2.588315   3.653392   3.570623   2.501344
     7  C    2.507806   2.969916   4.293007   4.623404   3.792863
     8  C    2.512214   3.583290   4.513943   4.272909   3.156142
     9  C    2.867474   3.613989   4.362759   4.206769   3.370360
    10  C    4.231403   4.945568   5.592009   5.359865   4.564369
    11  C    5.073086   5.979746   6.708001   6.357847   5.381261
    12  C    4.903351   5.984667   6.831288   6.424654   5.271327
    13  C    3.778248   4.928980   5.857768   5.492761   4.272927
    14  C    4.389947   5.590273   6.567381   6.173255   4.888482
    15  C    6.256055   7.393192   8.254380   7.781261   6.572671
    16  H    2.079883   3.284332   4.176897   3.860207   2.674273
    17  H    2.240646   1.077281   2.145394   3.217257   3.303880
    18  H    3.162382   2.128794   1.008009   2.109130   3.167110
    19  H    3.197665   3.224930   2.134013   1.079888   2.135171
    20  H    3.452945   4.051636   5.359969   5.591839   4.635984
    21  H    2.797416   2.885661   4.243473   4.793568   4.149478
    22  H    2.755978   2.955275   4.224116   4.676510   4.004951
    23  H    2.491042   2.888708   3.521182   3.553637   3.014297
    24  H    4.849071   5.358663   5.855246   5.689483   5.102795
    25  H    6.125248   6.993940   7.669266   7.298634   6.368930
    26  H    5.033320   6.323171   7.162796   6.585152   5.272822
    27  H    3.907378   5.071914   6.063378   5.723738   4.470565
    28  H    5.198290   6.287524   7.375126   7.107564   5.852819
    29  H    6.445299   7.686116   8.461697   7.842974   6.591842
    30  H    6.608082   7.695916   8.683876   8.324462   7.096741
    31  H    7.041904   8.127124   8.936981   8.459165   7.309076
                    6          7          8          9         10
     6  C    0.000000
     7  C    1.530981   0.000000
     8  C    1.521947   2.497604   0.000000
     9  C    2.515433   3.352239   1.394810   0.000000
    10  C    3.801930   4.545258   2.421297   1.385023   0.000000
    11  C    4.310461   5.011997   2.789629   2.395112   1.387971
    12  C    3.836207   4.503629   2.427496   2.779815   2.415353
    13  C    2.552510   3.276794   1.403479   2.415627   2.799893
    14  C    3.004955   3.485534   2.549038   3.814763   4.303195
    15  C    5.079799   5.634845   3.810024   4.281617   3.784115
    16  H    1.095067   2.143705   2.132739   3.340474   4.513474
    17  H    3.062202   2.893190   4.051714   4.050968   5.337937
    18  H    4.603364   5.086835   5.454545   5.192903   6.364427
    19  H    4.571278   5.687977   5.168011   5.024047   6.050540
    20  H    2.171644   1.091927   2.719314   3.746006   4.731645
    21  H    2.171419   1.093650   2.765099   3.180289   4.302561
    22  H    2.180130   1.093276   3.459798   4.310459   5.569977
    23  H    2.687129   3.448419   2.141566   1.085421   2.144262
    24  H    4.662421   5.357641   3.403612   2.147487   1.085765
    25  H    5.396814   6.057790   3.876019   3.381614   2.148493
    26  H    3.791066   4.480409   3.284668   4.462031   4.803063
    27  H    2.546233   2.941984   2.693266   4.081137   4.860348
    28  H    3.731298   3.811517   3.259551   4.431264   4.781364
    29  H    5.305408   6.021553   4.173385   4.799272   4.436496
    30  H    5.287104   5.565205   4.174157   4.799984   4.436603
    31  H    5.957502   6.518965   4.577407   4.773033   3.973521
                   11         12         13         14         15
    11  C    0.000000
    12  C    1.391286   0.000000
    13  C    2.421353   1.407083   0.000000
    14  C    3.781758   2.497119   1.504252   0.000000
    15  C    2.500566   1.501937   2.527550   2.880558   0.000000
    16  H    4.792468   4.063161   2.686363   2.636580   5.098287
    17  H    6.382160   6.405646   5.366027   5.998730   7.803238
    18  H    7.551448   7.758135   6.819892   7.550988   9.201911
    19  H    7.039493   7.165241   6.317616   6.995948   8.483289
    20  H    4.909925   4.192979   3.018221   2.932398   5.107580
    21  H    4.949333   4.710194   3.697188   4.217409   5.937529
    22  H    6.077878   5.527815   4.235488   4.214539   6.607349
    23  H    3.380671   3.865207   3.394508   4.687049   5.367015
    24  H    2.150686   3.399126   3.885655   5.388874   4.650576
    25  H    1.086404   2.143350   3.402704   4.639795   2.687317
    26  H    4.116325   2.789972   2.155495   1.094475   2.790926
    27  H    4.594249   3.429393   2.176749   1.087722   3.964349
    28  H    4.114791   2.805691   2.152336   1.094895   2.841776
    29  H    3.234296   2.160434   2.853910   2.855504   1.094836
    30  H    3.236199   2.160447   2.848846   2.830668   1.094800
    31  H    2.586882   2.150048   3.432654   3.962076   1.091142
                   16         17         18         19         20
    16  H    0.000000
    17  H    3.852392   0.000000
    18  H    5.148896   2.540342   0.000000
    19  H    4.756562   4.200208   2.527343   0.000000
    20  H    2.491829   3.961661   6.173512   6.636396   0.000000
    21  H    3.059414   2.535437   4.922774   5.869673   1.762337
    22  H    2.489583   2.760005   4.927527   5.720347   1.772454
    23  H    3.636139   3.313570   4.260303   4.378912   4.103453
    24  H    5.447948   5.706517   6.508890   6.287393   5.633632
    25  H    5.859991   7.378728   8.478566   7.916029   5.902066
    26  H    3.240006   6.848509   8.166100   7.292151   3.989787
    27  H    1.922046   5.468679   7.033654   6.574299   2.473744
    28  H    3.480669   6.545002   8.331337   7.979876   2.988938
    29  H    5.110485   8.202250   9.440102   8.468623   5.517548
    30  H    5.282752   7.990723   9.627958   9.105880   4.856234
    31  H    6.068867   8.528074   9.853879   9.114242   6.028291
                   21         22         23         24         25
    21  H    0.000000
    22  H    1.773314   0.000000
    23  H    3.098996   4.252070   0.000000
    24  H    4.958275   6.347513   2.473806   0.000000
    25  H    5.940927   7.133630   4.280771   2.479273   0.000000
    26  H    5.249720   5.139547   5.366504   5.868491   4.849174
    27  H    3.867741   3.450781   4.767139   5.929590   5.539823
    28  H    4.452930   4.537545   5.330233   5.843703   4.855614
    29  H    6.481554   6.909386   5.863485   5.328543   3.453245
    30  H    5.883898   6.498238   5.866576   5.329090   3.457595
    31  H    6.700880   7.533668   5.837706   4.645387   2.308041
                   26         27         28         29         30
    26  H    0.000000
    27  H    1.760613   0.000000
    28  H    1.754151   1.757561   0.000000
    29  H    2.351706   3.890965   2.992575   0.000000
    30  H    2.894247   3.879942   2.377039   1.754637   0.000000
    31  H    3.845477   5.041382   3.886990   1.767072   1.767441
                   31
    31  H    0.000000
 Stoichiometry    C13H16N2
 Framework group  C1[X(C13H16N2)]
 Deg. of freedom    87
 Full point group                 C1      NOp   1
 RotChk:  IX=0 Diff= 1.90D-15
 Largest Abelian subgroup         C1      NOp   1
 Largest concise Abelian subgroup C1      NOp   1
                         Standard orientation:                         
 ---------------------------------------------------------------------
 Center     Atomic      Atomic             Coordinates (Angstroms)
 Number     Number       Type             X           Y           Z
 ---------------------------------------------------------------------
      1          6           0        1.997912    0.351346    0.130796
      2          6           0        3.049048    0.167224   -0.726273
      3          7           0        3.980116   -0.550451   -0.021613
      4          6           0        3.473245   -0.770730    1.210411
      5          7           0        2.278744   -0.241780    1.340734
      6          6           0        0.697204    1.050511   -0.103372
      7          6           0        0.724317    1.896290   -1.379234
      8          6           0       -0.485902    0.094003   -0.144263
      9          6           0       -0.292396   -1.205019   -0.613937
     10          6           0       -1.349265   -2.094065   -0.718408
     11          6           0       -2.622832   -1.687943   -0.344836
     12          6           0       -2.847905   -0.397563    0.124141
     13          6           0       -1.775976    0.508785    0.220999
     14          6           0       -2.068430    1.902243    0.706305
     15          6           0       -4.237131    0.015750    0.517891
     16          1           0        0.561583    1.721759    0.751149
     17          1           0        3.216617    0.473315   -1.745471
     18          1           0        4.882026   -0.850490   -0.357201
     19          1           0        4.014353   -1.313962    1.970846
     20          1           0       -0.218419    2.432410   -1.506236
     21          1           0        0.861648    1.260403   -2.258357
     22          1           0        1.536567    2.627595   -1.352869
     23          1           0        0.708642   -1.517740   -0.893700
     24          1           0       -1.181449   -3.102277   -1.084786
     25          1           0       -3.457242   -2.379898   -0.417158
     26          1           0       -2.532931    1.885046    1.697172
     27          1           0       -1.182266    2.529780    0.769929
     28          1           0       -2.776244    2.405947    0.039914
     29          1           0       -4.285035    0.321726    1.568010
     30          1           0       -4.586708    0.869669   -0.071351
     31          1           0       -4.944500   -0.802653    0.374938
 ---------------------------------------------------------------------
 Rotational constants (GHZ):           1.2701820           0.3639254           0.3266311
 Leave Link  202 at Sun Oct  9 18:27:15 2022, MaxMem=  3221225472 cpu:               0.1 elap:               0.0
 (Enter /public/gkxiao/software/g16/l301.exe)
 Standard basis: 6-311+G(2d,p) (5D, 7F)
 Ernie: Thresh=  0.10000D-02 Tol=  0.10000D-05 Strict=F.
 There are   531 symmetry adapted cartesian basis functions of A   symmetry.
 There are   501 symmetry adapted basis functions of A   symmetry.
   501 basis functions,   758 primitive gaussians,   531 cartesian basis functions
    54 alpha electrons       54 beta electrons
       nuclear repulsion energy       960.2336801557 Hartrees.
 IExCor=  908 DFT=T Ex+Corr=mPW1PW91 ExCW=0 ScaHFX=  0.250000
 ScaDFX=  0.750000  0.750000  1.000000  1.000000 ScalE2=  1.000000  1.000000
 IRadAn=      5 IRanWt=     -1 IRanGd=            0 ICorTp=0 IEmpDi=  4
 NAtoms=   31 NActive=   31 NUniq=   31 SFac= 1.00D+00 NAtFMM=   60 NAOKFM=F Big=F
 Integral buffers will be    131072 words long.
 Raffenetti 2 integral format.
 Two-electron integral symmetry is turned on.
 ------------------------------------------------------------------------------
 Polarizable Continuum Model (PCM)
 =================================
 Model                : PCM.
 Atomic radii         : UFF (Universal Force Field).
 Polarization charges : Total charges.
 Charge compensation  : None.
 Solution method      : Matrix inversion.
 Cavity type          : Scaled VdW (van der Waals Surface) (Alpha=1.100).
 Cavity algorithm     : GePol (No added spheres)
                        Default sphere list used, NSphG=   31.
                        Lebedev-Laikov grids with approx.  5.0 points / Ang**2.
                        Smoothing algorithm: York/Karplus (Gamma=1.0000).
                        Polarization charges: spherical gaussians, with
                                              point-specific exponents (IZeta= 3).
                        Self-potential: point-specific (ISelfS= 7).
                        Self-field    : sphere-specific E.n sum rule (ISelfD= 2).
 Solvent              : Methanol, Eps=  32.613000 Eps(inf)=   1.765709
 ------------------------------------------------------------------------------
 GePol: Number of generator spheres                  =      31
 GePol: Total number of spheres                      =      31
 GePol: Number of exposed spheres                    =      31 (100.00%)
 GePol: Number of points                             =    2201
 GePol: Average weight of points                     =       0.13
 GePol: Minimum weight of points                     =   0.21D-11
 GePol: Maximum weight of points                     =    0.20577
 GePol: Number of points with low weight             =     146
 GePol: Fraction of low-weight points (<1% of avg)   =       6.63%
 GePol: Cavity surface area                          =    286.941 Ang**2
 GePol: Cavity volume                                =    308.443 Ang**3
 Leave Link  301 at Sun Oct  9 18:27:15 2022, MaxMem=  3221225472 cpu:               1.6 elap:               0.1
 (Enter /public/gkxiao/software/g16/l302.exe)
 NPDir=0 NMtPBC=     1 NCelOv=     1 NCel=       1 NClECP=     1 NCelD=      1
         NCelK=      1 NCelE2=     1 NClLst=     1 CellRange=     0.0.
 One-electron integrals computed using PRISM.
 One-electron integral symmetry used in STVInt
 NBasis=   501 RedAO= T EigKep=  1.02D-06  NBF=   501
 NBsUse=   498 1.00D-06 EigRej=  7.68D-07 NBFU=   498
 Precomputing XC quadrature grid using
 IXCGrd= 4 IRadAn=           5 IRanWt=          -1 IRanGd=           0 AccXCQ= 0.00D+00.
 Generated NRdTot=       0 NPtTot=           0 NUsed=           0 NTot=          32
 NSgBfM=   531   531   531   531   531 MxSgAt=    31 MxSgA2=    31.
 Leave Link  302 at Sun Oct  9 18:27:15 2022, MaxMem=  3221225472 cpu:              12.4 elap:               0.5
 (Enter /public/gkxiao/software/g16/l303.exe)
 DipDrv:  MaxL=1.
 Leave Link  303 at Sun Oct  9 18:27:15 2022, MaxMem=  3221225472 cpu:               1.9 elap:               0.1
 (Enter /public/gkxiao/software/g16/l401.exe)
 Initial guess from the checkpoint file:  "CONF_01_NMR.chk"
 B after Tr=    -0.000000   -0.000000    0.000000
         Rot=    1.000000    0.000000    0.000000    0.000000 Ang=   0.00 deg.
 Guess basis will be translated and rotated to current coordinates.
 JPrj=2 DoOrth=T DoCkMO=T.
 Leave Link  401 at Sun Oct  9 18:27:16 2022, MaxMem=  3221225472 cpu:               9.0 elap:               0.4
 (Enter /public/gkxiao/software/g16/l502.exe)
 Integral symmetry usage will be decided dynamically.
 Closed shell SCF:
 Using DIIS extrapolation, IDIIS=  1040.
 NGot=  3221225472 LenX=  3220643817 LenY=  3220361325
 Requested convergence on RMS density matrix=1.00D-08 within 128 cycles.
 Requested convergence on MAX density matrix=1.00D-06.
 Requested convergence on             energy=1.00D-06.
 No special actions if energy rises.
 Fock matrices will be formed incrementally for  20 cycles.

 Cycle   1  Pass 1  IDiag  1:
 FoFJK:  IHMeth= 1 ICntrl=       0 DoSepK=F KAlg= 0 I1Cent=           0 FoldK=F
 IRaf= 870000000 NMat=       1 IRICut=       1 DoRegI=T DoRafI=F ISym2E= 0 IDoP0=0 IntGTp=1.
 FoFCou: FMM=F IPFlag=           0 FMFlag=      100000 FMFlg1=           0
         NFxFlg=           0 DoJE=F BraDBF=F KetDBF=F FulRan=T
         wScrn=  0.000000 ICntrl=         0 IOpCl=  0 I1Cent=           0 NGrid=           0
         NMat0=    1 NMatS0=      1 NMatT0=    0 NMatD0=    1 NMtDS0=    0 NMtDT0=    0
 Symmetry not used in FoFCou.
 Inv3:  Mode=1 IEnd=    14533203.
 Iteration    1 A*A^-1 deviation from unit magnitude is 2.78D-15 for    235.
 Iteration    1 A*A^-1 deviation from orthogonality  is 2.16D-15 for   1320    539.
 Iteration    1 A^-1*A deviation from unit magnitude is 2.66D-15 for   1123.
 Iteration    1 A^-1*A deviation from orthogonality  is 1.99D-15 for   1542    333.
 E= -614.568590910221    
 DIIS: error= 1.60D-03 at cycle   1 NSaved=   1.
 NSaved= 1 IEnMin= 1 EnMin= -614.568590910221     IErMin= 1 ErrMin= 1.60D-03
 ErrMax= 1.60D-03  0.00D+00 EMaxC= 1.00D-01 BMatC= 9.00D-04 BMatP= 9.00D-04
 IDIUse=3 WtCom= 9.84D-01 WtEn= 1.60D-02
 Coeff-Com:  0.100D+01
 Coeff-En:   0.100D+01
 Coeff:      0.100D+01
 Gap=     0.236 Goal=   None    Shift=    0.000
 GapD=    0.236 DampG=1.000 DampE=1.000 DampFc=1.0000 IDamp=-1.
 RMSDP=2.33D-03 MaxDP=2.80D-01              OVMax= 2.07D-03

 Cycle   2  Pass 1  IDiag  1:
 RMSU=  1.19D-03    CP:  1.08D+00
 E= -614.568732930758     Delta-E=       -0.000142020537 Rises=F Damp=F
 DIIS: error= 1.12D-04 at cycle   2 NSaved=   2.
 NSaved= 2 IEnMin= 2 EnMin= -614.568732930758     IErMin= 2 ErrMin= 1.12D-04
 ErrMax= 1.12D-04  0.00D+00 EMaxC= 1.00D-01 BMatC= 1.40D-05 BMatP= 9.00D-04
 IDIUse=3 WtCom= 9.99D-01 WtEn= 1.12D-03
 Coeff-Com:  0.670D-01 0.933D+00
 Coeff-En:   0.000D+00 0.100D+01
 Coeff:      0.669D-01 0.933D+00
 Gap=     0.236 Goal=   None    Shift=    0.000
 RMSDP=1.44D-04 MaxDP=1.85D-02 DE=-1.42D-04 OVMax= 1.53D-03

 Cycle   3  Pass 1  IDiag  1:
 RMSU=  4.85D-05    CP:  1.09D+00  1.05D+00
 E= -614.568729763495     Delta-E=        0.000003167264 Rises=F Damp=F
 DIIS: error= 1.24D-04 at cycle   3 NSaved=   3.
 NSaved= 3 IEnMin= 2 EnMin= -614.568732930758     IErMin= 2 ErrMin= 1.12D-04
 ErrMax= 1.24D-04  0.00D+00 EMaxC= 1.00D-01 BMatC= 1.50D-05 BMatP= 1.40D-05
 IDIUse=3 WtCom= 9.99D-01 WtEn= 1.24D-03
 Coeff-Com:  0.263D-01 0.530D+00 0.444D+00
 Coeff-En:   0.000D+00 0.570D+00 0.430D+00
 Coeff:      0.263D-01 0.530D+00 0.444D+00
 Gap=     0.236 Goal=   None    Shift=    0.000
 RMSDP=1.91D-05 MaxDP=1.52D-03 DE= 3.17D-06 OVMax= 9.60D-04

 Cycle   4  Pass 1  IDiag  1:
 RMSU=  1.68D-05    CP:  1.09D+00  1.06D+00  8.93D-01
 E= -614.568741578113     Delta-E=       -0.000011814619 Rises=F Damp=F
 DIIS: error= 1.85D-05 at cycle   4 NSaved=   4.
 NSaved= 4 IEnMin= 4 EnMin= -614.568741578113     IErMin= 4 ErrMin= 1.85D-05
 ErrMax= 1.85D-05  0.00D+00 EMaxC= 1.00D-01 BMatC= 1.83D-07 BMatP= 1.40D-05
 IDIUse=1 WtCom= 1.00D+00 WtEn= 0.00D+00
 Coeff-Com:  0.370D-02 0.108D+00 0.144D+00 0.744D+00
 Coeff:      0.370D-02 0.108D+00 0.144D+00 0.744D+00
 Gap=     0.236 Goal=   None    Shift=    0.000
 RMSDP=9.02D-06 MaxDP=1.17D-03 DE=-1.18D-05 OVMax= 1.83D-04

 Cycle   5  Pass 1  IDiag  1:
 RMSU=  3.44D-06    CP:  1.09D+00  1.06D+00  9.70D-01  1.03D+00
 E= -614.568741682287     Delta-E=       -0.000000104174 Rises=F Damp=F
 DIIS: error= 1.09D-05 at cycle   5 NSaved=   5.
 NSaved= 5 IEnMin= 5 EnMin= -614.568741682287     IErMin= 5 ErrMin= 1.09D-05
 ErrMax= 1.09D-05  0.00D+00 EMaxC= 1.00D-01 BMatC= 6.02D-08 BMatP= 1.83D-07
 IDIUse=1 WtCom= 1.00D+00 WtEn= 0.00D+00
 Coeff-Com: -0.462D-03 0.553D-02 0.381D-01 0.429D+00 0.528D+00
 Coeff:     -0.462D-03 0.553D-02 0.381D-01 0.429D+00 0.528D+00
 Gap=     0.236 Goal=   None    Shift=    0.000
 RMSDP=1.52D-06 MaxDP=8.07D-05 DE=-1.04D-07 OVMax= 8.66D-05

 Cycle   6  Pass 1  IDiag  1:
 RMSU=  9.91D-07    CP:  1.09D+00  1.06D+00  9.79D-01  1.08D+00  8.28D-01
 E= -614.568741731461     Delta-E=       -0.000000049173 Rises=F Damp=F
 DIIS: error= 2.47D-06 at cycle   6 NSaved=   6.
 NSaved= 6 IEnMin= 6 EnMin= -614.568741731461     IErMin= 6 ErrMin= 2.47D-06
 ErrMax= 2.47D-06  0.00D+00 EMaxC= 1.00D-01 BMatC= 4.20D-09 BMatP= 6.02D-08
 IDIUse=1 WtCom= 1.00D+00 WtEn= 0.00D+00
 Coeff-Com: -0.514D-03-0.629D-02 0.878D-02 0.171D+00 0.284D+00 0.543D+00
 Coeff:     -0.514D-03-0.629D-02 0.878D-02 0.171D+00 0.284D+00 0.543D+00
 Gap=     0.236 Goal=   None    Shift=    0.000
 RMSDP=5.54D-07 MaxDP=9.00D-05 DE=-4.92D-08 OVMax= 2.52D-05

 Cycle   7  Pass 1  IDiag  1:
 RMSU=  3.25D-07    CP:  1.09D+00  1.06D+00  9.88D-01  1.08D+00  8.25D-01
                    CP:  1.04D+00
 E= -614.568741735019     Delta-E=       -0.000000003559 Rises=F Damp=F
 DIIS: error= 6.08D-07 at cycle   7 NSaved=   7.
 NSaved= 7 IEnMin= 7 EnMin= -614.568741735019     IErMin= 7 ErrMin= 6.08D-07
 ErrMax= 6.08D-07  0.00D+00 EMaxC= 1.00D-01 BMatC= 3.31D-10 BMatP= 4.20D-09
 IDIUse=1 WtCom= 1.00D+00 WtEn= 0.00D+00
 Coeff-Com: -0.211D-03-0.378D-02 0.269D-03 0.368D-01 0.804D-01 0.274D+00
 Coeff-Com:  0.612D+00
 Coeff:     -0.211D-03-0.378D-02 0.269D-03 0.368D-01 0.804D-01 0.274D+00
 Coeff:      0.612D+00
 Gap=     0.236 Goal=   None    Shift=    0.000
 RMSDP=4.36D-07 MaxDP=5.31D-05 DE=-3.56D-09 OVMax= 6.84D-06

 Cycle   8  Pass 1  IDiag  1:
 RMSU=  1.54D-07    CP:  1.09D+00  1.06D+00  9.89D-01  1.09D+00  8.52D-01
                    CP:  1.07D+00  8.57D-01
 E= -614.568741735315     Delta-E=       -0.000000000296 Rises=F Damp=F
 DIIS: error= 1.53D-07 at cycle   8 NSaved=   8.
 NSaved= 8 IEnMin= 8 EnMin= -614.568741735315     IErMin= 8 ErrMin= 1.53D-07
 ErrMax= 1.53D-07  0.00D+00 EMaxC= 1.00D-01 BMatC= 2.56D-11 BMatP= 3.31D-10
 IDIUse=1 WtCom= 1.00D+00 WtEn= 0.00D+00
 Coeff-Com: -0.695D-04-0.145D-02-0.464D-03 0.569D-02 0.200D-01 0.104D+00
 Coeff-Com:  0.294D+00 0.579D+00
 Coeff:     -0.695D-04-0.145D-02-0.464D-03 0.569D-02 0.200D-01 0.104D+00
 Coeff:      0.294D+00 0.579D+00
 Gap=     0.236 Goal=   None    Shift=    0.000
 RMSDP=7.80D-08 MaxDP=5.63D-06 DE=-2.96D-10 OVMax= 1.95D-06

 Cycle   9  Pass 1  IDiag  1:
 RMSU=  3.76D-08    CP:  1.09D+00  1.06D+00  9.90D-01  1.09D+00  8.55D-01
                    CP:  1.10D+00  9.31D-01  1.00D+00
 E= -614.568741735348     Delta-E=       -0.000000000033 Rises=F Damp=F
 DIIS: error= 6.91D-08 at cycle   9 NSaved=   9.
 NSaved= 9 IEnMin= 9 EnMin= -614.568741735348     IErMin= 9 ErrMin= 6.91D-08
 ErrMax= 6.91D-08  0.00D+00 EMaxC= 1.00D-01 BMatC= 4.41D-12 BMatP= 2.56D-11
 IDIUse=1 WtCom= 1.00D+00 WtEn= 0.00D+00
 Coeff-Com:  0.741D-05 0.216D-04-0.235D-03-0.448D-02-0.568D-02 0.186D-02
 Coeff-Com:  0.251D-01 0.304D+00 0.679D+00
 Coeff:      0.741D-05 0.216D-04-0.235D-03-0.448D-02-0.568D-02 0.186D-02
 Coeff:      0.251D-01 0.304D+00 0.679D+00
 Gap=     0.236 Goal=   None    Shift=    0.000
 RMSDP=2.94D-08 MaxDP=2.25D-06 DE=-3.30D-11 OVMax= 8.69D-07

 Cycle  10  Pass 1  IDiag  1:
 RMSU=  1.26D-08    CP:  1.09D+00  1.06D+00  9.90D-01  1.09D+00  8.57D-01
                    CP:  1.11D+00  9.35D-01  1.12D+00  8.77D-01
 E= -614.568741735336     Delta-E=        0.000000000013 Rises=F Damp=F
 DIIS: error= 2.41D-08 at cycle  10 NSaved=  10.
 NSaved=10 IEnMin= 9 EnMin= -614.568741735348     IErMin=10 ErrMin= 2.41D-08
 ErrMax= 2.41D-08  0.00D+00 EMaxC= 1.00D-01 BMatC= 4.28D-13 BMatP= 4.41D-12
 IDIUse=1 WtCom= 1.00D+00 WtEn= 0.00D+00
 Coeff-Com:  0.683D-05 0.727D-04-0.925D-04-0.261D-02-0.393D-02-0.341D-02
 Coeff-Com: -0.654D-03 0.133D+00 0.372D+00 0.505D+00
 Coeff:      0.683D-05 0.727D-04-0.925D-04-0.261D-02-0.393D-02-0.341D-02
 Coeff:     -0.654D-03 0.133D+00 0.372D+00 0.505D+00
 Gap=     0.236 Goal=   None    Shift=    0.000
 RMSDP=6.68D-09 MaxDP=5.84D-07 DE= 1.27D-11 OVMax= 2.59D-07

 Error on total polarization charges =  0.01696
 SCF Done:  E(RmPW1PW91) =  -614.568741735     A.U. after   10 cycles
            NFock= 10  Conv=0.67D-08     -V/T= 2.0044
 KE= 6.118774339437D+02 PE=-3.348650754252D+03 EE= 1.161970898417D+03
 Leave Link  502 at Sun Oct  9 18:28:24 2022, MaxMem=  3221225472 cpu:            1616.7 elap:              68.0
 (Enter /public/gkxiao/software/g16/l601.exe)
 Copying SCF densities to generalized density rwf, IOpCl= 0 IROHF=0.

 **********************************************************************

            Population analysis using the SCF density.

 **********************************************************************

 Orbital symmetries:
       Occupied  (A) (A) (A) (A) (A) (A) (A) (A) (A) (A) (A) (A)
                 (A) (A) (A) (A) (A) (A) (A) (A) (A) (A) (A) (A)
                 (A) (A) (A) (A) (A) (A) (A) (A) (A) (A) (A) (A)
                 (A) (A) (A) (A) (A) (A) (A) (A) (A) (A) (A) (A)
                 (A) (A) (A) (A) (A) (A)
       Virtual   (A) (A) (A) (A) (A) (A) (A) (A) (A) (A) (A) (A)
                 (A) (A) (A) (A) (A) (A) (A) (A) (A) (A) (A) (A)
                 (A) (A) (A) (A) (A) (A) (A) (A) (A) (A) (A) (A)
                 (A) (A) (A) (A) (A) (A) (A) (A) (A) (A) (A) (A)
                 (A) (A) (A) (A) (A) (A) (A) (A) (A) (A) (A) (A)
                 (A) (A) (A) (A) (A) (A) (A) (A) (A) (A) (A) (A)
                 (A) (A) (A) (A) (A) (A) (A) (A) (A) (A) (A) (A)
                 (A) (A) (A) (A) (A) (A) (A) (A) (A) (A) (A) (A)
                 (A) (A) (A) (A) (A) (A) (A) (A) (A) (A) (A) (A)
                 (A) (A) (A) (A) (A) (A) (A) (A) (A) (A) (A) (A)
                 (A) (A) (A) (A) (A) (A) (A) (A) (A) (A) (A) (A)
                 (A) (A) (A) (A) (A) (A) (A) (A) (A) (A) (A) (A)
                 (A) (A) (A) (A) (A) (A) (A) (A) (A) (A) (A) (A)
                 (A) (A) (A) (A) (A) (A) (A) (A) (A) (A) (A) (A)
                 (A) (A) (A) (A) (A) (A) (A) (A) (A) (A) (A) (A)
                 (A) (A) (A) (A) (A) (A) (A) (A) (A) (A) (A) (A)
                 (A) (A) (A) (A) (A) (A) (A) (A) (A) (A) (A) (A)
                 (A) (A) (A) (A) (A) (A) (A) (A) (A) (A) (A) (A)
                 (A) (A) (A) (A) (A) (A) (A) (A) (A) (A) (A) (A)
                 (A) (A) (A) (A) (A) (A) (A) (A) (A) (A) (A) (A)
                 (A) (A) (A) (A) (A) (A) (A) (A) (A) (A) (A) (A)
                 (A) (A) (A) (A) (A) (A) (A) (A) (A) (A) (A) (A)
                 (A) (A) (A) (A) (A) (A) (A) (A) (A) (A) (A) (A)
                 (A) (A) (A) (A) (A) (A) (A) (A) (A) (A) (A) (A)
                 (A) (A) (A) (A) (A) (A) (A) (A) (A) (A) (A) (A)
                 (A) (A) (A) (A) (A) (A) (A) (A) (A) (A) (A) (A)
                 (A) (A) (A) (A) (A) (A) (A) (A) (A) (A) (A) (A)
                 (A) (A) (A) (A) (A) (A) (A) (A) (A) (A) (A) (A)
                 (A) (A) (A) (A) (A) (A) (A) (A) (A) (A) (A) (A)
                 (A) (A) (A) (A) (A) (A) (A) (A) (A) (A) (A) (A)
                 (A) (A) (A) (A) (A) (A) (A) (A) (A) (A) (A) (A)
                 (A) (A) (A) (A) (A) (A) (A) (A) (A) (A) (A) (A)
                 (A) (A) (A) (A) (A) (A) (A) (A) (A) (A) (A) (A)
                 (A) (A) (A) (A) (A) (A) (A) (A) (A) (A) (A) (A)
                 (A) (A) (A) (A) (A) (A) (A) (A) (A) (A) (A) (A)
                 (A) (A) (A) (A) (A) (A) (A) (A) (A) (A) (A) (A)
                 (A) (A) (A) (A) (A) (A) (A) (A) (A) (A) (A) (A)
 The electronic state is 1-A.
 Alpha  occ. eigenvalues --  -14.45091 -14.37964 -10.28927 -10.25971 -10.25404
 Alpha  occ. eigenvalues --  -10.24753 -10.24377 -10.24287 -10.24248 -10.23151
 Alpha  occ. eigenvalues --  -10.22940 -10.22789 -10.22490 -10.22488 -10.22329
 Alpha  occ. eigenvalues --   -1.05400  -0.90845  -0.89246  -0.83448  -0.80350
 Alpha  occ. eigenvalues --   -0.77980  -0.75027  -0.71907  -0.69457  -0.67085
 Alpha  occ. eigenvalues --   -0.63106  -0.61354  -0.59657  -0.58744  -0.55470
 Alpha  occ. eigenvalues --   -0.51603  -0.50101  -0.47087  -0.46436  -0.45455
 Alpha  occ. eigenvalues --   -0.45170  -0.44877  -0.43852  -0.43252  -0.41548
 Alpha  occ. eigenvalues --   -0.41046  -0.40479  -0.39584  -0.39334  -0.38223
 Alpha  occ. eigenvalues --   -0.36536  -0.35842  -0.34338  -0.33966  -0.30054
 Alpha  occ. eigenvalues --   -0.29985  -0.25421  -0.25060  -0.24228
 Alpha virt. eigenvalues --   -0.00650  -0.00402   0.00662   0.01244   0.01555
 Alpha virt. eigenvalues --    0.02313   0.02570   0.03085   0.03833   0.04307
 Alpha virt. eigenvalues --    0.04427   0.05147   0.05165   0.05582   0.06000
 Alpha virt. eigenvalues --    0.06638   0.06759   0.08137   0.08352   0.08608
 Alpha virt. eigenvalues --    0.09004   0.09350   0.09576   0.10744   0.11024
 Alpha virt. eigenvalues --    0.11166   0.11913   0.12593   0.12781   0.13605
 Alpha virt. eigenvalues --    0.14133   0.14576   0.15289   0.15656   0.16052
 Alpha virt. eigenvalues --    0.16372   0.16698   0.16941   0.17528   0.17915
 Alpha virt. eigenvalues --    0.18117   0.18682   0.19063   0.19164   0.19886
 Alpha virt. eigenvalues --    0.20354   0.20668   0.20956   0.21197   0.21326
 Alpha virt. eigenvalues --    0.21731   0.22053   0.22414   0.22697   0.22892
 Alpha virt. eigenvalues --    0.23334   0.23645   0.24082   0.24370   0.24808
 Alpha virt. eigenvalues --    0.25249   0.25463   0.25550   0.26377   0.26740
 Alpha virt. eigenvalues --    0.27065   0.27205   0.28034   0.28476   0.28588
 Alpha virt. eigenvalues --    0.29332   0.29657   0.30407   0.31010   0.31382
 Alpha virt. eigenvalues --    0.31771   0.32075   0.32626   0.33614   0.34116
 Alpha virt. eigenvalues --    0.34488   0.36017   0.37463   0.37799   0.38062
 Alpha virt. eigenvalues --    0.39694   0.39993   0.41599   0.41679   0.43230
 Alpha virt. eigenvalues --    0.44301   0.44795   0.45348   0.46805   0.47136
 Alpha virt. eigenvalues --    0.47860   0.49001   0.50884   0.51030   0.51813
 Alpha virt. eigenvalues --    0.53477   0.53880   0.54686   0.55003   0.55096
 Alpha virt. eigenvalues --    0.55900   0.56080   0.56730   0.57316   0.58392
 Alpha virt. eigenvalues --    0.59171   0.59691   0.60338   0.61094   0.61774
 Alpha virt. eigenvalues --    0.62023   0.62815   0.63154   0.63789   0.64335
 Alpha virt. eigenvalues --    0.64529   0.64678   0.65834   0.66367   0.66933
 Alpha virt. eigenvalues --    0.67231   0.67686   0.68539   0.68773   0.69264
 Alpha virt. eigenvalues --    0.69679   0.70286   0.70674   0.71762   0.72636
 Alpha virt. eigenvalues --    0.73529   0.73893   0.74283   0.74871   0.75263
 Alpha virt. eigenvalues --    0.75887   0.77030   0.77849   0.78313   0.78620
 Alpha virt. eigenvalues --    0.78948   0.79345   0.80057   0.81261   0.82130
 Alpha virt. eigenvalues --    0.83077   0.83474   0.83880   0.83992   0.85001
 Alpha virt. eigenvalues --    0.85618   0.86154   0.87019   0.87286   0.88814
 Alpha virt. eigenvalues --    0.90524   0.91332   0.91480   0.92735   0.94053
 Alpha virt. eigenvalues --    0.94492   0.95001   0.96323   0.96743   0.98717
 Alpha virt. eigenvalues --    0.99351   1.00519   1.00927   1.01458   1.02523
 Alpha virt. eigenvalues --    1.04080   1.04469   1.05680   1.07431   1.08897
 Alpha virt. eigenvalues --    1.09734   1.10228   1.12077   1.12448   1.13859
 Alpha virt. eigenvalues --    1.16675   1.17832   1.18561   1.19498   1.21062
 Alpha virt. eigenvalues --    1.22620   1.23863   1.24659   1.26053   1.27206
 Alpha virt. eigenvalues --    1.27653   1.28816   1.29944   1.30705   1.32096
 Alpha virt. eigenvalues --    1.32402   1.32717   1.33354   1.34989   1.35573
 Alpha virt. eigenvalues --    1.36739   1.37635   1.38085   1.38993   1.39914
 Alpha virt. eigenvalues --    1.41487   1.42381   1.43063   1.43782   1.44747
 Alpha virt. eigenvalues --    1.45851   1.46275   1.47420   1.48446   1.50033
 Alpha virt. eigenvalues --    1.50771   1.51074   1.51520   1.53092   1.54851
 Alpha virt. eigenvalues --    1.58381   1.58904   1.60885   1.61648   1.62937
 Alpha virt. eigenvalues --    1.64690   1.65925   1.67638   1.68736   1.71095
 Alpha virt. eigenvalues --    1.72740   1.74761   1.74943   1.77906   1.79115
 Alpha virt. eigenvalues --    1.79609   1.80478   1.80608   1.83356   1.88595
 Alpha virt. eigenvalues --    1.89742   1.90419   1.90787   1.91841   1.92549
 Alpha virt. eigenvalues --    1.94789   1.96019   1.98816   2.00014   2.00998
 Alpha virt. eigenvalues --    2.03165   2.07334   2.09179   2.10068   2.13384
 Alpha virt. eigenvalues --    2.15421   2.16721   2.20268   2.20601   2.22520
 Alpha virt. eigenvalues --    2.25500   2.27101   2.28065   2.29112   2.30485
 Alpha virt. eigenvalues --    2.31068   2.35475   2.36287   2.36817   2.38231
 Alpha virt. eigenvalues --    2.39201   2.40754   2.42600   2.44153   2.45348
 Alpha virt. eigenvalues --    2.46010   2.47711   2.50930   2.54635   2.55047
 Alpha virt. eigenvalues --    2.56288   2.58066   2.61784   2.64736   2.66638
 Alpha virt. eigenvalues --    2.70886   2.72105   2.74233   2.75339   2.75609
 Alpha virt. eigenvalues --    2.77120   2.78696   2.80081   2.81103   2.82211
 Alpha virt. eigenvalues --    2.84799   2.85833   2.88130   2.88587   2.90239
 Alpha virt. eigenvalues --    2.91809   2.92018   2.93206   2.94559   2.95939
 Alpha virt. eigenvalues --    2.99189   3.00963   3.02343   3.04169   3.06154
 Alpha virt. eigenvalues --    3.08456   3.11196   3.12698   3.14959   3.15622
 Alpha virt. eigenvalues --    3.17110   3.19186   3.20293   3.22787   3.23002
 Alpha virt. eigenvalues --    3.24894   3.26669   3.27837   3.28747   3.30563
 Alpha virt. eigenvalues --    3.30899   3.31792   3.33021   3.33629   3.34065
 Alpha virt. eigenvalues --    3.35039   3.36534   3.38451   3.40100   3.41045
 Alpha virt. eigenvalues --    3.42079   3.42871   3.44684   3.45542   3.47392
 Alpha virt. eigenvalues --    3.48068   3.49801   3.50330   3.52133   3.53903
 Alpha virt. eigenvalues --    3.55251   3.55861   3.56359   3.57157   3.58715
 Alpha virt. eigenvalues --    3.60306   3.61102   3.62097   3.62936   3.63673
 Alpha virt. eigenvalues --    3.65134   3.66404   3.66754   3.67821   3.69732
 Alpha virt. eigenvalues --    3.70479   3.71827   3.73350   3.73433   3.75091
 Alpha virt. eigenvalues --    3.75337   3.77433   3.79292   3.81946   3.82650
 Alpha virt. eigenvalues --    3.83329   3.83899   3.86154   3.88775   3.90777
 Alpha virt. eigenvalues --    3.91547   3.91973   3.94727   3.95198   3.96395
 Alpha virt. eigenvalues --    3.97937   3.98175   4.00663   4.03032   4.05748
 Alpha virt. eigenvalues --    4.08038   4.08685   4.09606   4.13726   4.14170
 Alpha virt. eigenvalues --    4.15795   4.21781   4.23655   4.25942   4.28206
 Alpha virt. eigenvalues --    4.28690   4.32115   4.32515   4.33682   4.37210
 Alpha virt. eigenvalues --    4.39585   4.44875   4.52260   4.64756   4.68277
 Alpha virt. eigenvalues --    4.74885   4.77516   4.79478   4.94136   4.95192
 Alpha virt. eigenvalues --    4.96463   4.99042   5.03514   5.08263   5.12467
 Alpha virt. eigenvalues --    5.14997   5.19347   5.31299   5.36512   5.37602
 Alpha virt. eigenvalues --    5.48090   5.54003   5.66575   5.78536  23.73979
 Alpha virt. eigenvalues --   23.95405  24.03743  24.04870  24.09576  24.17840
 Alpha virt. eigenvalues --   24.19771  24.21554  24.25427  24.25890  24.27217
 Alpha virt. eigenvalues --   24.31547  24.53153  35.72198  35.80307
          Condensed to atoms (all electrons):
               1          2          3          4          5          6
     1  C   10.987000  -1.523592   0.178013  -0.169601   0.486651  -2.164173
     2  C   -1.523592   7.783402   0.174197  -0.103368   0.184347  -0.747871
     3  N    0.178013   0.174197   6.454092   0.347041   0.017015  -0.137090
     4  C   -0.169601  -0.103368   0.347041   5.132320   0.380696  -0.146720
     5  N    0.486651   0.184347   0.017015   0.380696   6.834327  -0.382364
     6  C   -2.164173  -0.747871  -0.137090  -0.146720  -0.382364  11.015199
     7  C    0.036955  -0.466226   0.004557  -0.013603   0.013063   0.461400
     8  C   -2.288119   0.642731  -0.083137  -0.092076  -0.022734  -0.552907
     9  C    1.750107   0.030796   0.035737   0.089430   0.074644  -2.549339
    10  C    0.088431  -0.235747   0.014314  -0.003912  -0.050539   0.686422
    11  C    0.528993   0.027629   0.002110   0.009323   0.016208  -1.085221
    12  C    0.211347   0.096195   0.000036   0.000321   0.002482  -1.198230
    13  C   -1.310269  -0.073456  -0.008010  -0.012685  -0.036588   2.180294
    14  C    0.017846   0.016869   0.000519  -0.000521   0.003927  -0.529979
    15  C   -0.139300   0.001709  -0.000350  -0.001992  -0.002381   0.146940
    16  H   -0.160784   0.004481  -0.000861  -0.005692  -0.017137   0.444711
    17  H   -0.085589   0.415445  -0.039771   0.010999   0.006236   0.068090
    18  H    0.056055  -0.099689   0.390557  -0.026257   0.000311   0.001698
    19  H    0.054852  -0.032065  -0.051602   0.436943  -0.063938   0.010543
    20  H    0.075906   0.012548   0.000239   0.001605   0.000535  -0.019435
    21  H   -0.063596  -0.016202  -0.000639  -0.003011  -0.002385   0.013937
    22  H    0.050145  -0.010362   0.000517   0.000850   0.000971  -0.128920
    23  H    0.003432  -0.002790   0.004412   0.003409  -0.002776   0.004879
    24  H   -0.002639   0.001056  -0.000054  -0.000240   0.000047  -0.004324
    25  H   -0.000640  -0.000077  -0.000001  -0.000011   0.000010   0.003100
    26  H    0.017037   0.000487   0.000005   0.000162   0.000163  -0.014448
    27  H    0.012826  -0.003401  -0.000060  -0.000385  -0.000213   0.000379
    28  H   -0.006747  -0.000525  -0.000001   0.000000  -0.000022   0.010682
    29  H    0.001717   0.000063   0.000000  -0.000003  -0.000003  -0.005259
    30  H   -0.001127  -0.000042  -0.000000   0.000001  -0.000006  -0.002251
    31  H   -0.000153  -0.000011  -0.000000   0.000000   0.000004   0.002569
               7          8          9         10         11         12
     1  C    0.036955  -2.288119   1.750107   0.088431   0.528993   0.211347
     2  C   -0.466226   0.642731   0.030796  -0.235747   0.027629   0.096195
     3  N    0.004557  -0.083137   0.035737   0.014314   0.002110   0.000036
     4  C   -0.013603  -0.092076   0.089430  -0.003912   0.009323   0.000321
     5  N    0.013063  -0.022734   0.074644  -0.050539   0.016208   0.002482
     6  C    0.461400  -0.552907  -2.549339   0.686422  -1.085221  -1.198230
     7  C    6.028777  -0.475252  -0.061610   0.159925  -0.066835  -0.121710
     8  C   -0.475252   8.624648  -0.034441  -1.332211   0.429116   0.567588
     9  C   -0.061610  -0.034441   9.081164  -1.561972   1.078362   0.770555
    10  C    0.159925  -1.332211  -1.561972   8.082760  -0.232754  -0.561563
    11  C   -0.066835   0.429116   1.078362  -0.232754   8.632160   0.730505
    12  C   -0.121710   0.567588   0.770555  -0.561563   0.730505   7.581808
    13  C    0.195652  -0.093361  -2.328264   0.975258  -3.195481  -2.087289
    14  C   -0.079698   0.155405  -0.094389   0.074728   0.132172   0.410386
    15  C    0.008482  -0.239223  -0.167191   0.015800  -0.725745  -0.756217
    16  H   -0.017446   0.027389  -0.006754  -0.002392  -0.001917   0.003232
    17  H   -0.003804   0.016727  -0.019325  -0.000671  -0.000753  -0.000262
    18  H    0.000420  -0.001345   0.001304   0.000389  -0.000041   0.000043
    19  H    0.000413   0.001454  -0.001495  -0.000126  -0.000082  -0.000066
    20  H    0.366084  -0.059921   0.017885   0.000093   0.000947   0.001830
    21  H    0.457970  -0.015287   0.001004   0.008986  -0.006349   0.005316
    22  H    0.444397   0.016533   0.003788   0.000628   0.002198  -0.001627
    23  H   -0.008801  -0.025571   0.463504  -0.113318   0.007904   0.011229
    24  H   -0.000272  -0.005553  -0.045294   0.456938  -0.073798   0.004394
    25  H    0.000019   0.014187  -0.002245  -0.026321   0.396199  -0.059788
    26  H   -0.006480   0.034070   0.004808  -0.000719   0.026820   0.051037
    27  H   -0.009836  -0.012601   0.011636   0.004875  -0.001039   0.037988
    28  H    0.004632  -0.008790  -0.001489  -0.004349  -0.008822  -0.032333
    29  H   -0.000512   0.001301   0.008996  -0.003881   0.053636   0.003180
    30  H    0.000895  -0.011158   0.003797  -0.004762  -0.005170  -0.071899
    31  H   -0.000016   0.004886  -0.006422   0.021905  -0.036441  -0.079409
              13         14         15         16         17         18
     1  C   -1.310269   0.017846  -0.139300  -0.160784  -0.085589   0.056055
     2  C   -0.073456   0.016869   0.001709   0.004481   0.415445  -0.099689
     3  N   -0.008010   0.000519  -0.000350  -0.000861  -0.039771   0.390557
     4  C   -0.012685  -0.000521  -0.001992  -0.005692   0.010999  -0.026257
     5  N   -0.036588   0.003927  -0.002381  -0.017137   0.006236   0.000311
     6  C    2.180294  -0.529979   0.146940   0.444711   0.068090   0.001698
     7  C    0.195652  -0.079698   0.008482  -0.017446  -0.003804   0.000420
     8  C   -0.093361   0.155405  -0.239223   0.027389   0.016727  -0.001345
     9  C   -2.328264  -0.094389  -0.167191  -0.006754  -0.019325   0.001304
    10  C    0.975258   0.074728   0.015800  -0.002392  -0.000671   0.000389
    11  C   -3.195481   0.132172  -0.725745  -0.001917  -0.000753  -0.000041
    12  C   -2.087289   0.410386  -0.756217   0.003232  -0.000262   0.000043
    13  C   11.188258  -0.863367   0.880405   0.034441   0.000579   0.000030
    14  C   -0.863367   6.774241  -0.334964  -0.018103  -0.000386   0.000009
    15  C    0.880405  -0.334964   6.802572   0.003109   0.000040   0.000002
    16  H    0.034441  -0.018103   0.003109   0.595489  -0.000195   0.000036
    17  H    0.000579  -0.000386   0.000040  -0.000195   0.473177  -0.003206
    18  H    0.000030   0.000009   0.000002   0.000036  -0.003206   0.339075
    19  H    0.000130  -0.000059   0.000007   0.000022   0.000024  -0.001562
    20  H   -0.014278  -0.000203  -0.000695  -0.006502   0.000045  -0.000000
    21  H    0.011084  -0.007008   0.001454   0.006545  -0.000574   0.000011
    22  H   -0.008200   0.008700  -0.000894  -0.005447  -0.000765  -0.000005
    23  H   -0.009767  -0.003291   0.001125  -0.000399  -0.000006  -0.000034
    24  H    0.015318   0.002003   0.001007   0.000024   0.000000   0.000000
    25  H    0.021946  -0.002635  -0.003558  -0.000001   0.000000   0.000000
    26  H   -0.147873   0.436899  -0.040625   0.001241  -0.000000  -0.000000
    27  H   -0.133862   0.461197   0.005679   0.004449   0.000004  -0.000000
    28  H    0.039735   0.370673  -0.002364  -0.000335   0.000000   0.000000
    29  H   -0.113325   0.001561   0.412740   0.000001   0.000000   0.000000
    30  H    0.020672  -0.019203   0.450112  -0.000001   0.000000  -0.000000
    31  H    0.040190   0.004378   0.416715  -0.000000   0.000000  -0.000000
              19         20         21         22         23         24
     1  C    0.054852   0.075906  -0.063596   0.050145   0.003432  -0.002639
     2  C   -0.032065   0.012548  -0.016202  -0.010362  -0.002790   0.001056
     3  N   -0.051602   0.000239  -0.000639   0.000517   0.004412  -0.000054
     4  C    0.436943   0.001605  -0.003011   0.000850   0.003409  -0.000240
     5  N   -0.063938   0.000535  -0.002385   0.000971  -0.002776   0.000047
     6  C    0.010543  -0.019435   0.013937  -0.128920   0.004879  -0.004324
     7  C    0.000413   0.366084   0.457970   0.444397  -0.008801  -0.000272
     8  C    0.001454  -0.059921  -0.015287   0.016533  -0.025571  -0.005553
     9  C   -0.001495   0.017885   0.001004   0.003788   0.463504  -0.045294
    10  C   -0.000126   0.000093   0.008986   0.000628  -0.113318   0.456938
    11  C   -0.000082   0.000947  -0.006349   0.002198   0.007904  -0.073798
    12  C   -0.000066   0.001830   0.005316  -0.001627   0.011229   0.004394
    13  C    0.000130  -0.014278   0.011084  -0.008200  -0.009767   0.015318
    14  C   -0.000059  -0.000203  -0.007008   0.008700  -0.003291   0.002003
    15  C    0.000007  -0.000695   0.001454  -0.000894   0.001125   0.001007
    16  H    0.000022  -0.006502   0.006545  -0.005447  -0.000399   0.000024
    17  H    0.000024   0.000045  -0.000574  -0.000765  -0.000006   0.000000
    18  H   -0.001562  -0.000000   0.000011  -0.000005  -0.000034   0.000000
    19  H    0.492858  -0.000001   0.000001  -0.000001   0.000007   0.000000
    20  H   -0.000001   0.503031  -0.024262  -0.020259   0.000096  -0.000000
    21  H    0.000001  -0.024262   0.493725  -0.030796  -0.000054   0.000019
    22  H   -0.000001  -0.020259  -0.030796   0.516237  -0.000156  -0.000001
    23  H    0.000007   0.000096  -0.000054  -0.000156   0.524075  -0.005780
    24  H    0.000000  -0.000000   0.000019  -0.000001  -0.005780   0.542818
    25  H    0.000000   0.000000  -0.000000   0.000000  -0.000295  -0.006397
    26  H   -0.000000   0.000131   0.000011   0.000020   0.000012  -0.000000
    27  H    0.000000  -0.001508  -0.000038   0.000240  -0.000072  -0.000001
    28  H   -0.000000  -0.000629   0.000041  -0.000087   0.000014  -0.000000
    29  H    0.000000   0.000000   0.000000  -0.000000  -0.000000   0.000013
    30  H    0.000000   0.000013   0.000000   0.000000  -0.000002   0.000012
    31  H   -0.000000  -0.000001  -0.000000   0.000000  -0.000001  -0.000065
              25         26         27         28         29         30
     1  C   -0.000640   0.017037   0.012826  -0.006747   0.001717  -0.001127
     2  C   -0.000077   0.000487  -0.003401  -0.000525   0.000063  -0.000042
     3  N   -0.000001   0.000005  -0.000060  -0.000001   0.000000  -0.000000
     4  C   -0.000011   0.000162  -0.000385   0.000000  -0.000003   0.000001
     5  N    0.000010   0.000163  -0.000213  -0.000022  -0.000003  -0.000006
     6  C    0.003100  -0.014448   0.000379   0.010682  -0.005259  -0.002251
     7  C    0.000019  -0.006480  -0.009836   0.004632  -0.000512   0.000895
     8  C    0.014187   0.034070  -0.012601  -0.008790   0.001301  -0.011158
     9  C   -0.002245   0.004808   0.011636  -0.001489   0.008996   0.003797
    10  C   -0.026321  -0.000719   0.004875  -0.004349  -0.003881  -0.004762
    11  C    0.396199   0.026820  -0.001039  -0.008822   0.053636  -0.005170
    12  C   -0.059788   0.051037   0.037988  -0.032333   0.003180  -0.071899
    13  C    0.021946  -0.147873  -0.133862   0.039735  -0.113325   0.020672
    14  C   -0.002635   0.436899   0.461197   0.370673   0.001561  -0.019203
    15  C   -0.003558  -0.040625   0.005679  -0.002364   0.412740   0.450112
    16  H   -0.000001   0.001241   0.004449  -0.000335   0.000001  -0.000001
    17  H    0.000000  -0.000000   0.000004   0.000000   0.000000   0.000000
    18  H    0.000000  -0.000000  -0.000000   0.000000   0.000000  -0.000000
    19  H    0.000000  -0.000000   0.000000  -0.000000   0.000000   0.000000
    20  H    0.000000   0.000131  -0.001508  -0.000629   0.000000   0.000013
    21  H   -0.000000   0.000011  -0.000038   0.000041   0.000000   0.000000
    22  H    0.000000   0.000020   0.000240  -0.000087  -0.000000   0.000000
    23  H   -0.000295   0.000012  -0.000072   0.000014  -0.000000  -0.000002
    24  H   -0.006397  -0.000000  -0.000001  -0.000000   0.000013   0.000012
    25  H    0.544862  -0.000026   0.000017  -0.000015   0.000165   0.000207
    26  H   -0.000026   0.517886  -0.024057  -0.033761   0.004452  -0.002684
    27  H    0.000017  -0.024057   0.499567  -0.021137  -0.000061   0.000189
    28  H   -0.000015  -0.033761  -0.021137   0.512424  -0.001598   0.004678
    29  H    0.000165   0.004452  -0.000061  -0.001598   0.524203  -0.038890
    30  H    0.000207  -0.002684   0.000189   0.004678  -0.038890   0.530788
    31  H    0.004099   0.000136  -0.000041   0.000026  -0.020444  -0.021640
              31
     1  C   -0.000153
     2  C   -0.000011
     3  N   -0.000000
     4  C    0.000000
     5  N    0.000004
     6  C    0.002569
     7  C   -0.000016
     8  C    0.004886
     9  C   -0.006422
    10  C    0.021905
    11  C   -0.036441
    12  C   -0.079409
    13  C    0.040190
    14  C    0.004378
    15  C    0.416715
    16  H   -0.000000
    17  H    0.000000
    18  H   -0.000000
    19  H   -0.000000
    20  H   -0.000001
    21  H   -0.000000
    22  H    0.000000
    23  H   -0.000001
    24  H   -0.000065
    25  H    0.004099
    26  H    0.000136
    27  H   -0.000041
    28  H    0.000026
    29  H   -0.020444
    30  H   -0.021640
    31  H    0.515074
 Mulliken charges:
               1
     1  C   -0.640983
     2  C   -0.076533
     3  N   -0.301785
     4  C    0.166977
     5  N   -0.440555
     6  C    0.617690
     7  C   -0.851540
     8  C    0.817652
     9  C   -0.547287
    10  C   -0.456214
    11  C   -0.633834
    12  C    0.480920
    13  C    0.832083
    14  C   -0.917710
    15  C   -0.732397
    16  H    0.118797
    17  H    0.163939
    18  H    0.342200
    19  H    0.153742
    20  H    0.166706
    21  H    0.170098
    22  H    0.162299
    23  H    0.149016
    24  H    0.120770
    25  H    0.117200
    26  H    0.175296
    27  H    0.169270
    28  H    0.180100
    29  H    0.171950
    30  H    0.167470
    31  H    0.154664
 Sum of Mulliken charges =  -0.00000
 Mulliken charges with hydrogens summed into heavy atoms:
               1
     1  C   -0.640983
     2  C    0.087406
     3  N    0.040414
     4  C    0.320719
     5  N   -0.440555
     6  C    0.736486
     7  C   -0.352438
     8  C    0.817652
     9  C   -0.398271
    10  C   -0.335444
    11  C   -0.516633
    12  C    0.480920
    13  C    0.832083
    14  C   -0.393044
    15  C   -0.238313
 Electronic spatial extent (au):  <R**2>=           3555.3875
 Charge=             -0.0000 electrons
 Dipole moment (field-independent basis, Debye):
    X=              3.3743    Y=              0.3910    Z=             -2.5820  Tot=              4.2668
 Quadrupole moment (field-independent basis, Debye-Ang):
   XX=            -57.2904   YY=            -85.6159   ZZ=            -93.8057
   XY=             -7.9360   XZ=             -7.6536   YZ=              0.6699
 Traceless Quadrupole moment (field-independent basis, Debye-Ang):
   XX=             21.6136   YY=             -6.7119   ZZ=            -14.9017
   XY=             -7.9360   XZ=             -7.6536   YZ=              0.6699
 Octapole moment (field-independent basis, Debye-Ang**2):
  XXX=            132.9475  YYY=             -3.5639  ZZZ=             -4.8242  XYY=              1.9616
  XXY=            -37.5715  XXZ=             -8.1204  XZZ=             12.0651  YZZ=              1.9782
  YYZ=             -3.4312  XYZ=             -8.1413
 Hexadecapole moment (field-independent basis, Debye-Ang**3):
 XXXX=          -2653.3675 YYYY=           -889.5821 ZZZZ=           -468.6254 XXXY=           -185.6264
 XXXZ=            -52.6629 YYYX=             -5.2068 YYYZ=             16.6189 ZZZX=            -30.3392
 ZZZY=             -8.9151 XXYY=           -685.3610 XXZZ=           -628.5254 YYZZ=           -228.3282
 XXYZ=            -23.3444 YYXZ=             14.4142 ZZXY=            -25.5995
 N-N= 9.602336801557D+02 E-N=-3.348650748071D+03  KE= 6.118774339437D+02
 No NMR shielding tensors so no spin-rotation constants.
 Leave Link  601 at Sun Oct  9 18:28:24 2022, MaxMem=  3221225472 cpu:               8.8 elap:               0.4
 (Enter /public/gkxiao/software/g16/l9999.exe)
 1\1\GINC-MASTER\SP\RmPW1PW91\6-311+G(2d,p)\C13H16N2\GKXIAO\09-Oct-2022
 \0\\#P mPW1PW91/6-311+G(2d,p) guess=read geom=allcheck scrf=check\\Str
 ucture: CONF_1 Calculation: Opt Freq at APFD/6-311+g(2d,p) level\\0,1\
 C,0,-0.9196407215,3.054591346,0.538938893\C,0,-1.698811226,4.009043776
 7,1.1349839174\N,0,-1.5207718657,5.1482063241,0.3939687675\C,0,-0.6587
 98478,4.852010705,-0.6023210598\N,0,-0.2736721703,3.598073207,-0.54824
 29956\C,0,-0.7345425767,1.6177385865,0.9086704152\C,0,-1.2799525716,1.
 3121472022,2.3061837268\C,0,-1.3519057418,0.6651137906,-0.105080409\C,
 0,-2.4844450863,1.0678748258,-0.8126357131\C,0,-3.1113073509,0.2158955
 444,-1.706763348\C,0,-2.6016145354,-1.0595249736,-1.9067122498\C,0,-1.
 4754147911,-1.4911895168,-1.2131582223\C,0,-0.8443283165,-0.6291443834
 ,-0.2974676179\C,0,0.353472058,-1.1457887695,0.4516165374\C,0,-0.94787
 47209,-2.8778881111,-1.4467888073\H,0,0.347452964,1.4492829595,0.91758
 10365\H,0,-2.3458549745,3.9838776273,1.9959336334\H,0,-1.9467259603,6.
 0454125354,0.5662105593\H,0,-0.3432469164,5.5830452525,-1.3318237214\H
 ,0,-1.0939751588,0.2697681026,2.5729488711\H,0,-2.3613635905,1.4718725
 512,2.3394868443\H,0,-0.8141187494,1.9503300023,3.0618117595\H,0,-2.87
 00139093,2.0706920285,-0.6582564163\H,0,-3.9913927189,0.5453720064,-2.
 2506210248\H,0,-3.0824781555,-1.733025127,-2.6105880203\H,0,1.13836205
 38,-1.4726555994,-0.2375719456\H,0,0.7910439656,-0.409640914,1.1222546
 004\H,0,0.0874760301,-2.0188874482,1.0563810195\H,0,0.0829569575,-2.86
 10192169,-1.8152555017\H,0,-0.9390383096,-3.4673671276,-0.5242794731\H
 ,0,-1.5566754331,-3.4102171863,-2.1793040553\\Version=ES64L-G16RevA.03
 \State=1-A\HF=-614.5687417\RMSD=6.676e-09\Dipole=-0.7052848,1.1326289,
 1.0186576\Quadrupole=-8.9177375,15.7785013,-6.8607638,-7.9711037,1.118
 169,4.219601\PG=C01 [X(C13H16N2)]\\@


 WE DON'T KNOW ONE MILLIONTH OF ONE PERCENT ABOUT
 ANYTHING.
                                     T. A. EDISON.
 Job cpu time:       0 days  0 hours 27 minutes 51.3 seconds.
 Elapsed time:       0 days  0 hours  1 minutes 10.3 seconds.
 File lengths (MBytes):  RWF=    221 Int=      0 D2E=      0 Chk=     27 Scr=      1
 Normal termination of Gaussian 16 at Sun Oct  9 18:28:24 2022.
