 Entering Gaussian System, Link 0=g16
 Input=CONF_01.com
 Output=CONF_01.log
 Initial command:
 /public/gkxiao/software/g16/l1.exe "/home/gkxiao/tmp/Gau-559636.inp" -scrdir="/home/gkxiao/tmp/"
 Default is to use a total of  24 processors:
                               24 via shared-memory
                                1 via Linda
 Entering Link 1 = /public/gkxiao/software/g16/l1.exe PID=    559638.
  
 Copyright (c) 1988,1990,1992,1993,1995,1998,2003,2009,2016,
            Gaussian, Inc.  All Rights Reserved.
  
 This is part of the Gaussian(R) 16 program.  It is based on
 the Gaussian(R) 09 system (copyright 2009, Gaussian, Inc.),
 the Gaussian(R) 03 system (copyright 2003, Gaussian, Inc.),
 the Gaussian(R) 98 system (copyright 1998, Gaussian, Inc.),
 the Gaussian(R) 94 system (copyright 1995, Gaussian, Inc.),
 the Gaussian 92(TM) system (copyright 1992, Gaussian, Inc.),
 the Gaussian 90(TM) system (copyright 1990, Gaussian, Inc.),
 the Gaussian 88(TM) system (copyright 1988, Gaussian, Inc.),
 the Gaussian 86(TM) system (copyright 1986, Carnegie Mellon
 University), and the Gaussian 82(TM) system (copyright 1983,
 Carnegie Mellon University). Gaussian is a federally registered
 trademark of Gaussian, Inc.
  
 This software contains proprietary and confidential information,
 including trade secrets, belonging to Gaussian, Inc.
  
 This software is provided under written license and may be
 used, copied, transmitted, or stored only in accord with that
 written license.
  
 The following legend is applicable only to US Government
 contracts under FAR:
  
                    RESTRICTED RIGHTS LEGEND
  
 Use, reproduction and disclosure by the US Government is
 subject to restrictions as set forth in subparagraphs (a)
 and (c) of the Commercial Computer Software - Restricted
 Rights clause in FAR 52.227-19.
  
 Gaussian, Inc.
 340 Quinnipiac St., Bldg. 40, Wallingford CT 06492
  
  
 ---------------------------------------------------------------
 Warning -- This program may not be used in any manner that
 competes with the business of Gaussian, Inc. or will provide
 assistance to any competitor of Gaussian, Inc.  The licensee
 of this program is prohibited from giving any competitor of
 Gaussian, Inc. access to this program.  By using this program,
 the user acknowledges that Gaussian, Inc. is engaged in the
 business of creating and licensing software in the field of
 computational chemistry and represents and warrants to the
 licensee that it is not a competitor of Gaussian, Inc. and that
 it will not use this program in any manner prohibited above.
 ---------------------------------------------------------------
  

 Cite this work as:
 Gaussian 16, Revision A.03,
 M. J. Frisch, G. W. Trucks, H. B. Schlegel, G. E. Scuseria, 
 M. A. Robb, J. R. Cheeseman, G. Scalmani, V. Barone, 
 G. A. Petersson, H. Nakatsuji, X. Li, M. Caricato, A. V. Marenich, 
 J. Bloino, B. G. Janesko, R. Gomperts, B. Mennucci, H. P. Hratchian, 
 J. V. Ortiz, A. F. Izmaylov, J. L. Sonnenberg, D. Williams-Young, 
 F. Ding, F. Lipparini, F. Egidi, J. Goings, B. Peng, A. Petrone, 
 T. Henderson, D. Ranasinghe, V. G. Zakrzewski, J. Gao, N. Rega, 
 G. Zheng, W. Liang, M. Hada, M. Ehara, K. Toyota, R. Fukuda, 
 J. Hasegawa, M. Ishida, T. Nakajima, Y. Honda, O. Kitao, H. Nakai, 
 T. Vreven, K. Throssell, J. A. Montgomery, Jr., J. E. Peralta, 
 F. Ogliaro, M. J. Bearpark, J. J. Heyd, E. N. Brothers, K. N. Kudin, 
 V. N. Staroverov, T. A. Keith, R. Kobayashi, J. Normand, 
 K. Raghavachari, A. P. Rendell, J. C. Burant, S. S. Iyengar, 
 J. Tomasi, M. Cossi, J. M. Millam, M. Klene, C. Adamo, R. Cammi, 
 J. W. Ochterski, R. L. Martin, K. Morokuma, O. Farkas, 
 J. B. Foresman, and D. J. Fox, Gaussian, Inc., Wallingford CT, 2016.
 
 ******************************************
 Gaussian 16:  ES64L-G16RevA.03 25-Dec-2016
                 9-Oct-2022 
 ******************************************
 %chk=CONF_1.chk
 -------------------------------------------------------------
 #P OPT FREQ APFD/6-311+g(2d,p) scrf=(iefpcm,solvent=Methanol)
 -------------------------------------------------------------
 1/18=20,19=15,26=3,38=1/1,3;
 2/9=110,12=2,17=6,18=5,40=1/2;
 3/5=4,6=6,7=112,11=2,25=1,30=1,70=2201,71=1,72=3,74=-44/1,2,3;
 4//1;
 5/5=2,38=5,53=3/2;
 6/7=2,8=2,9=2,10=2,28=1/1;
 7//1,2,3,16;
 1/18=20,19=15,26=3/3(2);
 2/9=110/2;
 99//99;
 2/9=110/2;
 3/5=4,6=6,7=112,11=2,25=1,30=1,70=2205,71=1,72=3,74=-44/1,2,3;
 4/5=5,16=3,69=1/1;
 5/5=2,38=5,53=3/2;
 7//1,2,3,16;
 1/18=20,19=15,26=3/3(-5);
 2/9=110/2;
 6/7=2,8=2,9=2,10=2,19=2,28=1/1;
 99/9=1/99;
 Leave Link    1 at Sun Oct  9 16:16:26 2022, MaxMem=           0 cpu:               1.4 elap:               0.1
 (Enter /public/gkxiao/software/g16/l101.exe)
 -------------------------------------------------------------------
 Structure: CONF_1 Calculation: Opt Freq at APFD/6-311+g(2d,p) level
 -------------------------------------------------------------------
 Symbolic Z-matrix:
 Charge =  0 Multiplicity = 1
 C                    -0.9189    3.0772    0.5403 
 C                    -1.7467    4.0246    1.1222 
 N                    -1.5394    5.1889    0.4001 
 C                    -0.6108    4.9054   -0.5698 
 N                    -0.2164    3.6429   -0.5151 
 C                    -0.7283    1.6284    0.9049 
 C                    -1.2646    1.3199    2.317 
 C                    -1.3523    0.665    -0.1126 
 C                    -2.4974    1.0673   -0.8235 
 C                    -3.1342    0.2034   -1.7173 
 C                    -2.6248   -1.0845   -1.9131 
 C                    -1.4857   -1.5177   -1.2171 
 C                    -0.8422   -0.6433   -0.3022 
 C                     0.3692   -1.1625    0.441 
 C                    -0.9554   -2.9135   -1.445 
 H                     0.3649    1.4676    0.9034 
 H                    -2.4391    3.9861    1.9596 
 H                    -1.9863    6.0863    0.5731 
 H                    -0.2616    5.6557   -1.2793 
 H                    -1.0578    0.273     2.5925 
 H                    -2.3595    1.4573    2.352 
 H                    -0.8032    1.9801    3.0717 
 H                    -2.8794    2.0821   -0.6748 
 H                    -4.0222    0.5351   -2.2656 
 H                    -3.1126   -1.7694   -2.6162 
 H                     1.1553   -1.498    -0.2602 
 H                     0.8218   -0.4154    1.1075 
 H                     0.1109   -2.0414    1.0609 
 H                     0.0834   -2.903    -1.8244 
 H                    -0.9401   -3.5072   -0.512 
 H                    -1.5738   -3.4564   -2.1779 
 
 ITRead=  0  0  0  0  0  0  0  0  0  0  0  0  0  0  0  0  0  0  0  0
 ITRead=  0  0  0  0  0  0  0  0  0  0  0
 MicOpt= -1 -1 -1 -1 -1 -1 -1 -1 -1 -1 -1 -1 -1 -1 -1 -1 -1 -1 -1 -1
 MicOpt= -1 -1 -1 -1 -1 -1 -1 -1 -1 -1 -1
 NAtoms=     31 NQM=       31 NQMF=       0 NMMI=      0 NMMIF=      0
                NMic=       0 NMicF=      0.
                    Isotopes and Nuclear Properties:
 (Nuclear quadrupole moments (NQMom) in fm**2, nuclear magnetic moments (NMagM)
  in nuclear magnetons)

  Atom         1           2           3           4           5           6           7           8           9          10
 IAtWgt=          12          12          14          12          14          12          12          12          12          12
 AtmWgt=  12.0000000  12.0000000  14.0030740  12.0000000  14.0030740  12.0000000  12.0000000  12.0000000  12.0000000  12.0000000
 NucSpn=           0           0           2           0           2           0           0           0           0           0
 AtZEff=  -0.0000000  -0.0000000  -0.0000000  -0.0000000  -0.0000000  -0.0000000  -0.0000000  -0.0000000  -0.0000000  -0.0000000
 NQMom=    0.0000000   0.0000000   2.0440000   0.0000000   2.0440000   0.0000000   0.0000000   0.0000000   0.0000000   0.0000000
 NMagM=    0.0000000   0.0000000   0.4037610   0.0000000   0.4037610   0.0000000   0.0000000   0.0000000   0.0000000   0.0000000
 AtZNuc=   6.0000000   6.0000000   7.0000000   6.0000000   7.0000000   6.0000000   6.0000000   6.0000000   6.0000000   6.0000000

  Atom        11          12          13          14          15          16          17          18          19          20
 IAtWgt=          12          12          12          12          12           1           1           1           1           1
 AtmWgt=  12.0000000  12.0000000  12.0000000  12.0000000  12.0000000   1.0078250   1.0078250   1.0078250   1.0078250   1.0078250
 NucSpn=           0           0           0           0           0           1           1           1           1           1
 AtZEff=  -0.0000000  -0.0000000  -0.0000000  -0.0000000  -0.0000000  -0.0000000  -0.0000000  -0.0000000  -0.0000000  -0.0000000
 NQMom=    0.0000000   0.0000000   0.0000000   0.0000000   0.0000000   0.0000000   0.0000000   0.0000000   0.0000000   0.0000000
 NMagM=    0.0000000   0.0000000   0.0000000   0.0000000   0.0000000   2.7928460   2.7928460   2.7928460   2.7928460   2.7928460
 AtZNuc=   6.0000000   6.0000000   6.0000000   6.0000000   6.0000000   1.0000000   1.0000000   1.0000000   1.0000000   1.0000000

  Atom        21          22          23          24          25          26          27          28          29          30
 IAtWgt=           1           1           1           1           1           1           1           1           1           1
 AtmWgt=   1.0078250   1.0078250   1.0078250   1.0078250   1.0078250   1.0078250   1.0078250   1.0078250   1.0078250   1.0078250
 NucSpn=           1           1           1           1           1           1           1           1           1           1
 AtZEff=  -0.0000000  -0.0000000  -0.0000000  -0.0000000  -0.0000000  -0.0000000  -0.0000000  -0.0000000  -0.0000000  -0.0000000
 NQMom=    0.0000000   0.0000000   0.0000000   0.0000000   0.0000000   0.0000000   0.0000000   0.0000000   0.0000000   0.0000000
 NMagM=    2.7928460   2.7928460   2.7928460   2.7928460   2.7928460   2.7928460   2.7928460   2.7928460   2.7928460   2.7928460
 AtZNuc=   1.0000000   1.0000000   1.0000000   1.0000000   1.0000000   1.0000000   1.0000000   1.0000000   1.0000000   1.0000000

  Atom        31
 IAtWgt=           1
 AtmWgt=   1.0078250
 NucSpn=           1
 AtZEff=  -0.0000000
 NQMom=    0.0000000
 NMagM=    2.7928460
 AtZNuc=   1.0000000
 Leave Link  101 at Sun Oct  9 16:16:27 2022, MaxMem=  3221225472 cpu:              20.5 elap:               0.9
 (Enter /public/gkxiao/software/g16/l103.exe)

 GradGradGradGradGradGradGradGradGradGradGradGradGradGradGradGradGradGrad
 Berny optimization.
 Initialization pass.
                           ----------------------------
                           !    Initial Parameters    !
                           ! (Angstroms and Degrees)  !
 --------------------------                            --------------------------
 ! Name  Definition              Value          Derivative Info.                !
 --------------------------------------------------------------------------------
 ! R1    R(1,2)                  1.3862         estimate D2E/DX2                !
 ! R2    R(1,5)                  1.3883         estimate D2E/DX2                !
 ! R3    R(1,6)                  1.5061         estimate D2E/DX2                !
 ! R4    R(2,3)                  1.3856         estimate D2E/DX2                !
 ! R5    R(2,17)                 1.0873         estimate D2E/DX2                !
 ! R6    R(3,4)                  1.3724         estimate D2E/DX2                !
 ! R7    R(3,18)                 1.0173         estimate D2E/DX2                !
 ! R8    R(4,5)                  1.3238         estimate D2E/DX2                !
 ! R9    R(4,19)                 1.0901         estimate D2E/DX2                !
 ! R10   R(6,7)                  1.5417         estimate D2E/DX2                !
 ! R11   R(6,8)                  1.5339         estimate D2E/DX2                !
 ! R12   R(6,16)                 1.105          estimate D2E/DX2                !
 ! R13   R(7,20)                 1.1021         estimate D2E/DX2                !
 ! R14   R(7,21)                 1.104          estimate D2E/DX2                !
 ! R15   R(7,22)                 1.1038         estimate D2E/DX2                !
 ! R16   R(8,9)                  1.4066         estimate D2E/DX2                !
 ! R17   R(8,13)                 1.417          estimate D2E/DX2                !
 ! R18   R(9,10)                 1.3967         estimate D2E/DX2                !
 ! R19   R(9,23)                 1.0945         estimate D2E/DX2                !
 ! R20   R(10,11)                1.3988         estimate D2E/DX2                !
 ! R21   R(10,24)                1.0951         estimate D2E/DX2                !
 ! R22   R(11,12)                1.4034         estimate D2E/DX2                !
 ! R23   R(11,25)                1.0961         estimate D2E/DX2                !
 ! R24   R(12,13)                1.4198         estimate D2E/DX2                !
 ! R25   R(12,15)                1.5104         estimate D2E/DX2                !
 ! R26   R(13,14)                1.5131         estimate D2E/DX2                !
 ! R27   R(14,26)                1.1055         estimate D2E/DX2                !
 ! R28   R(14,27)                1.0987         estimate D2E/DX2                !
 ! R29   R(14,28)                1.1061         estimate D2E/DX2                !
 ! R30   R(15,29)                1.106          estimate D2E/DX2                !
 ! R31   R(15,30)                1.106          estimate D2E/DX2                !
 ! R32   R(15,31)                1.102          estimate D2E/DX2                !
 ! A1    A(2,1,5)              110.0487         estimate D2E/DX2                !
 ! A2    A(2,1,6)              129.1556         estimate D2E/DX2                !
 ! A3    A(5,1,6)              120.7954         estimate D2E/DX2                !
 ! A4    A(1,2,3)              105.4374         estimate D2E/DX2                !
 ! A5    A(1,2,17)             132.799          estimate D2E/DX2                !
 ! A6    A(3,2,17)             121.7624         estimate D2E/DX2                !
 ! A7    A(2,3,4)              107.2147         estimate D2E/DX2                !
 ! A8    A(2,3,18)             125.9346         estimate D2E/DX2                !
 ! A9    A(4,3,18)             126.8445         estimate D2E/DX2                !
 ! A10   A(3,4,5)              111.6787         estimate D2E/DX2                !
 ! A11   A(3,4,19)             122.3143         estimate D2E/DX2                !
 ! A12   A(5,4,19)             126.0066         estimate D2E/DX2                !
 ! A13   A(1,5,4)              105.6204         estimate D2E/DX2                !
 ! A14   A(1,6,7)              111.7283         estimate D2E/DX2                !
 ! A15   A(1,6,8)              113.0864         estimate D2E/DX2                !
 ! A16   A(1,6,16)             105.3591         estimate D2E/DX2                !
 ! A17   A(7,6,8)              109.9007         estimate D2E/DX2                !
 ! A18   A(7,6,16)             108.4383         estimate D2E/DX2                !
 ! A19   A(8,6,16)             108.0698         estimate D2E/DX2                !
 ! A20   A(6,7,20)             110.7179         estimate D2E/DX2                !
 ! A21   A(6,7,21)             110.4333         estimate D2E/DX2                !
 ! A22   A(6,7,22)             111.1718         estimate D2E/DX2                !
 ! A23   A(20,7,21)            107.2401         estimate D2E/DX2                !
 ! A24   A(20,7,22)            108.5907         estimate D2E/DX2                !
 ! A25   A(21,7,22)            108.5688         estimate D2E/DX2                !
 ! A26   A(6,8,9)              119.1309         estimate D2E/DX2                !
 ! A27   A(6,8,13)             121.4813         estimate D2E/DX2                !
 ! A28   A(9,8,13)             119.3091         estimate D2E/DX2                !
 ! A29   A(8,9,10)             121.1784         estimate D2E/DX2                !
 ! A30   A(8,9,23)             118.7292         estimate D2E/DX2                !
 ! A31   A(10,9,23)            120.0878         estimate D2E/DX2                !
 ! A32   A(9,10,11)            119.5415         estimate D2E/DX2                !
 ! A33   A(9,10,24)            120.1842         estimate D2E/DX2                !
 ! A34   A(11,10,24)           120.273          estimate D2E/DX2                !
 ! A35   A(10,11,12)           120.6889         estimate D2E/DX2                !
 ! A36   A(10,11,25)           120.2027         estimate D2E/DX2                !
 ! A37   A(12,11,25)           119.1083         estimate D2E/DX2                !
 ! A38   A(11,12,13)           119.825          estimate D2E/DX2                !
 ! A39   A(11,12,15)           119.6949         estimate D2E/DX2                !
 ! A40   A(13,12,15)           120.48           estimate D2E/DX2                !
 ! A41   A(8,13,12)            119.4529         estimate D2E/DX2                !
 ! A42   A(8,13,14)            122.6374         estimate D2E/DX2                !
 ! A43   A(12,13,14)           117.9088         estimate D2E/DX2                !
 ! A44   A(13,14,26)           111.2159         estimate D2E/DX2                !
 ! A45   A(13,14,27)           113.2303         estimate D2E/DX2                !
 ! A46   A(13,14,28)           111.1599         estimate D2E/DX2                !
 ! A47   A(26,14,27)           107.3492         estimate D2E/DX2                !
 ! A48   A(26,14,28)           106.2827         estimate D2E/DX2                !
 ! A49   A(27,14,28)           107.2489         estimate D2E/DX2                !
 ! A50   A(12,15,29)           111.8857         estimate D2E/DX2                !
 ! A51   A(12,15,30)           111.9402         estimate D2E/DX2                !
 ! A52   A(12,15,31)           111.0145         estimate D2E/DX2                !
 ! A53   A(29,15,30)           106.3495         estimate D2E/DX2                !
 ! A54   A(29,15,31)           107.6753         estimate D2E/DX2                !
 ! A55   A(30,15,31)           107.7197         estimate D2E/DX2                !
 ! D1    D(5,1,2,3)              0.0468         estimate D2E/DX2                !
 ! D2    D(5,1,2,17)          -179.5499         estimate D2E/DX2                !
 ! D3    D(6,1,2,3)           -179.7688         estimate D2E/DX2                !
 ! D4    D(6,1,2,17)             0.6345         estimate D2E/DX2                !
 ! D5    D(2,1,5,4)              0.0174         estimate D2E/DX2                !
 ! D6    D(6,1,5,4)            179.8509         estimate D2E/DX2                !
 ! D7    D(2,1,6,7)            -16.897          estimate D2E/DX2                !
 ! D8    D(2,1,6,8)            107.7276         estimate D2E/DX2                !
 ! D9    D(2,1,6,16)          -134.4488         estimate D2E/DX2                !
 ! D10   D(5,1,6,7)            163.3047         estimate D2E/DX2                !
 ! D11   D(5,1,6,8)            -72.0707         estimate D2E/DX2                !
 ! D12   D(5,1,6,16)            45.7529         estimate D2E/DX2                !
 ! D13   D(1,2,3,4)             -0.0911         estimate D2E/DX2                !
 ! D14   D(1,2,3,18)          -179.2344         estimate D2E/DX2                !
 ! D15   D(17,2,3,4)           179.5609         estimate D2E/DX2                !
 ! D16   D(17,2,3,18)            0.4176         estimate D2E/DX2                !
 ! D17   D(2,3,4,5)              0.1089         estimate D2E/DX2                !
 ! D18   D(2,3,4,19)          -179.682          estimate D2E/DX2                !
 ! D19   D(18,3,4,5)           179.2421         estimate D2E/DX2                !
 ! D20   D(18,3,4,19)           -0.5488         estimate D2E/DX2                !
 ! D21   D(3,4,5,1)             -0.0778         estimate D2E/DX2                !
 ! D22   D(19,4,5,1)           179.7038         estimate D2E/DX2                !
 ! D23   D(1,6,7,20)          -176.2969         estimate D2E/DX2                !
 ! D24   D(1,6,7,21)            65.0794         estimate D2E/DX2                !
 ! D25   D(1,6,7,22)           -55.4991         estimate D2E/DX2                !
 ! D26   D(8,6,7,20)            57.3197         estimate D2E/DX2                !
 ! D27   D(8,6,7,21)           -61.3039         estimate D2E/DX2                !
 ! D28   D(8,6,7,22)           178.1175         estimate D2E/DX2                !
 ! D29   D(16,6,7,20)          -60.612          estimate D2E/DX2                !
 ! D30   D(16,6,7,21)         -179.2356         estimate D2E/DX2                !
 ! D31   D(16,6,7,22)           60.1858         estimate D2E/DX2                !
 ! D32   D(1,6,8,9)            -30.6356         estimate D2E/DX2                !
 ! D33   D(1,6,8,13)           152.6132         estimate D2E/DX2                !
 ! D34   D(7,6,8,9)             94.977          estimate D2E/DX2                !
 ! D35   D(7,6,8,13)           -81.7742         estimate D2E/DX2                !
 ! D36   D(16,6,8,9)          -146.8632         estimate D2E/DX2                !
 ! D37   D(16,6,8,13)           36.3856         estimate D2E/DX2                !
 ! D38   D(6,8,9,10)          -177.2072         estimate D2E/DX2                !
 ! D39   D(6,8,9,23)             3.5771         estimate D2E/DX2                !
 ! D40   D(13,8,9,10)           -0.3844         estimate D2E/DX2                !
 ! D41   D(13,8,9,23)         -179.6002         estimate D2E/DX2                !
 ! D42   D(6,8,13,12)          177.5025         estimate D2E/DX2                !
 ! D43   D(6,8,13,14)           -2.1467         estimate D2E/DX2                !
 ! D44   D(9,8,13,12)            0.7569         estimate D2E/DX2                !
 ! D45   D(9,8,13,14)         -178.8922         estimate D2E/DX2                !
 ! D46   D(8,9,10,11)           -0.1331         estimate D2E/DX2                !
 ! D47   D(8,9,10,24)         -179.7285         estimate D2E/DX2                !
 ! D48   D(23,9,10,11)         179.0721         estimate D2E/DX2                !
 ! D49   D(23,9,10,24)          -0.5233         estimate D2E/DX2                !
 ! D50   D(9,10,11,12)           0.2734         estimate D2E/DX2                !
 ! D51   D(9,10,11,25)        -179.6509         estimate D2E/DX2                !
 ! D52   D(24,10,11,12)        179.8685         estimate D2E/DX2                !
 ! D53   D(24,10,11,25)         -0.0558         estimate D2E/DX2                !
 ! D54   D(10,11,12,13)          0.1067         estimate D2E/DX2                !
 ! D55   D(10,11,12,15)        179.9533         estimate D2E/DX2                !
 ! D56   D(25,11,12,13)       -179.9682         estimate D2E/DX2                !
 ! D57   D(25,11,12,15)         -0.1216         estimate D2E/DX2                !
 ! D58   D(11,12,13,8)          -0.6231         estimate D2E/DX2                !
 ! D59   D(11,12,13,14)        179.0425         estimate D2E/DX2                !
 ! D60   D(15,12,13,8)         179.5315         estimate D2E/DX2                !
 ! D61   D(15,12,13,14)         -0.8029         estimate D2E/DX2                !
 ! D62   D(11,12,15,29)        120.1324         estimate D2E/DX2                !
 ! D63   D(11,12,15,30)       -120.6021         estimate D2E/DX2                !
 ! D64   D(11,12,15,31)         -0.188          estimate D2E/DX2                !
 ! D65   D(13,12,15,29)        -60.0221         estimate D2E/DX2                !
 ! D66   D(13,12,15,30)         59.2435         estimate D2E/DX2                !
 ! D67   D(13,12,15,31)        179.6575         estimate D2E/DX2                !
 ! D68   D(8,13,14,26)        -122.854          estimate D2E/DX2                !
 ! D69   D(8,13,14,27)          -1.8754         estimate D2E/DX2                !
 ! D70   D(8,13,14,28)         118.9321         estimate D2E/DX2                !
 ! D71   D(12,13,14,26)         57.4917         estimate D2E/DX2                !
 ! D72   D(12,13,14,27)        178.4704         estimate D2E/DX2                !
 ! D73   D(12,13,14,28)        -60.7222         estimate D2E/DX2                !
 --------------------------------------------------------------------------------
 Trust Radius=3.00D-01 FncErr=1.00D-07 GrdErr=1.00D-06 EigMax=2.50D+02 EigMin=1.00D-04
 Number of steps in this run=    170 maximum allowed number of steps=    186.
 GradGradGradGradGradGradGradGradGradGradGradGradGradGradGradGradGradGrad

 Leave Link  103 at Sun Oct  9 16:16:27 2022, MaxMem=  3221225472 cpu:               0.7 elap:               0.1
 (Enter /public/gkxiao/software/g16/l202.exe)
                          Input orientation:                          
 ---------------------------------------------------------------------
 Center     Atomic      Atomic             Coordinates (Angstroms)
 Number     Number       Type             X           Y           Z
 ---------------------------------------------------------------------
      1          6           0       -0.918900    3.077200    0.540300
      2          6           0       -1.746700    4.024600    1.122200
      3          7           0       -1.539400    5.188900    0.400100
      4          6           0       -0.610800    4.905400   -0.569800
      5          7           0       -0.216400    3.642900   -0.515100
      6          6           0       -0.728300    1.628400    0.904900
      7          6           0       -1.264600    1.319900    2.317000
      8          6           0       -1.352300    0.665000   -0.112600
      9          6           0       -2.497400    1.067300   -0.823500
     10          6           0       -3.134200    0.203400   -1.717300
     11          6           0       -2.624800   -1.084500   -1.913100
     12          6           0       -1.485700   -1.517700   -1.217100
     13          6           0       -0.842200   -0.643300   -0.302200
     14          6           0        0.369200   -1.162500    0.441000
     15          6           0       -0.955400   -2.913500   -1.445000
     16          1           0        0.364900    1.467600    0.903400
     17          1           0       -2.439100    3.986100    1.959600
     18          1           0       -1.986300    6.086300    0.573100
     19          1           0       -0.261600    5.655700   -1.279300
     20          1           0       -1.057800    0.273000    2.592500
     21          1           0       -2.359500    1.457300    2.352000
     22          1           0       -0.803200    1.980100    3.071700
     23          1           0       -2.879400    2.082100   -0.674800
     24          1           0       -4.022200    0.535100   -2.265600
     25          1           0       -3.112600   -1.769400   -2.616200
     26          1           0        1.155300   -1.498000   -0.260200
     27          1           0        0.821800   -0.415400    1.107500
     28          1           0        0.110900   -2.041400    1.060900
     29          1           0        0.083400   -2.903000   -1.824400
     30          1           0       -0.940100   -3.507200   -0.512000
     31          1           0       -1.573800   -3.456400   -2.177900
 ---------------------------------------------------------------------
                    Distance matrix (angstroms):
                    1          2          3          4          5
     1  C    0.000000
     2  C    1.386156   0.000000
     3  N    2.205437   1.385639   0.000000
     4  C    2.160917   2.220122   1.372362   0.000000
     5  N    1.388305   2.273382   2.231151   1.323801   0.000000
     6  C    1.506082   2.612687   3.686444   3.595452   2.517271
     7  C    2.522751   2.995892   4.326567   4.649396   3.809966
     8  C    2.536301   3.600999   4.556703   4.328954   3.212501
     9  C    2.896776   3.618691   4.404832   4.284231   3.454242
    10  C    4.273528   4.958779   5.646413   5.458306   4.667869
    11  C    5.123379   6.007246   6.773812   6.460616   5.486630
    12  C    4.952052   6.021423   6.899036   6.514650   5.360571
    13  C    3.815470   4.963499   5.915562   5.559966   4.336872
    14  C    4.432169   5.643321   6.632097   6.229087   4.934463
    15  C    6.311199   7.440020   8.330326   7.875273   6.663124
    16  H    2.090645   3.323398   4.210433   3.865330   2.661199
    17  H    2.269696   1.087262   2.165232   3.253561   3.343998
    18  H    3.192977   2.146981   1.017337   2.143069   3.207324
    19  H    3.223608   3.260861   2.161263   1.090083   2.153464
    20  H    3.477694   4.087893   5.404131   5.626640   4.660618
    21  H    2.825183   2.911866   4.290375   4.846056   4.194042
    22  H    2.761340   2.978376   4.239792   4.674925   3.996795
    23  H    2.512022   2.878459   3.550101   3.623340   3.090820
    24  H    4.895490   5.369516   5.910001   5.797664   5.216012
    25  H    6.185899   7.029349   7.745383   7.416179   6.488111
    26  H    5.086803   6.389972   7.239616   6.649699   5.326855
    27  H    3.943350   5.129426   6.122406   5.759912   4.492270
    28  H    5.247054   6.344351   7.445629   7.172033   5.907806
    29  H    6.508395   7.747474   8.547557   7.938957   6.682287
    30  H    6.667991   7.749143   8.764316   8.419241   7.186632
    31  H    7.106718   8.178381   9.021556   8.569309   7.416704
                    6          7          8          9         10
     6  C    0.000000
     7  C    1.541693   0.000000
     8  C    1.533891   2.517845   0.000000
     9  C    2.536122   3.383244   1.406584   0.000000
    10  C    3.833394   4.584490   2.441988   1.396680   0.000000
    11  C    4.347144   5.052230   2.814570   2.415306   1.398754
    12  C    3.869688   4.537700   2.449877   2.803691   2.435146
    13  C    2.575012   3.300422   1.416968   2.436718   2.823592
    14  C    3.034606   3.514397   2.570951   3.845564   4.335638
    15  C    5.118834   5.671854   3.839073   4.314023   3.812661
    16  H    1.104964   2.162256   2.150627   3.366777   4.550821
    17  H    3.098060   2.935270   4.062616   4.033415   5.320862
    18  H    4.643870   5.126461   5.501148   5.234699   6.416550
    19  H    4.605180   5.721761   5.240029   5.124448   6.178289
    20  H    2.189446   1.102119   2.749174   3.791097   4.784418
    21  H    2.187278   1.104042   2.777849   3.202330   4.328005
    22  H    2.196435   1.103778   3.488662   4.344663   5.614690
    23  H    2.707125   3.484163   2.157841   1.094465   2.163618
    24  H    4.700761   5.405598   3.432295   2.165157   1.095081
    25  H    5.443168   6.106991   3.910623   3.411614   2.168047
    26  H    3.831421   4.520889   3.314877   4.498921   4.839185
    27  H    2.573126   2.971064   2.717098   4.116339   4.900239
    28  H    3.767761   3.842932   3.292819   4.474171   4.825785
    29  H    5.351777   6.066398   4.209765   4.840001   4.473717
    30  H    5.331684   5.604412   4.211494   4.842341   4.476089
    31  H    6.006140   6.566032   4.615243   4.811580   4.005139
                   11         12         13         14         15
    11  C    0.000000
    12  C    1.403434   0.000000
    13  C    2.442810   1.419757   0.000000
    14  C    3.809450   2.513189   1.513078   0.000000
    15  C    2.520170   1.510435   2.544133   2.894402   0.000000
    16  H    4.835720   4.102835   2.714122   2.670442   5.143171
    17  H    6.383046   6.425901   5.394180   6.058117   7.835633
    18  H    7.616380   7.827914   6.882051   7.623053   9.280726
    19  H    7.170545   7.277359   6.400720   7.060113   8.598837
    20  H    4.959710   4.231165   3.043908   2.953970   5.144480
    21  H    4.972143   4.727856   3.709380   4.238051   5.957566
    22  H    6.128477   5.576219   4.273985   4.262750   6.661161
    23  H    3.409628   3.898083   3.422984   4.725023   5.408420
    24  H    2.167968   3.427415   3.918669   5.430647   4.687375
    25  H    1.096078   2.160472   3.431824   4.673086   2.708170
    26  H    4.146350   2.809079   2.173081   1.105529   2.804005
    27  H    4.631498   3.455921   2.192735   1.098739   3.989261
    28  H    4.152636   2.830667   2.172815   1.106101   2.859561
    29  H    3.263305   2.179437   2.877511   2.871073   1.105966
    30  H    3.266615   2.180127   2.873243   2.849578   1.105985
    31  H    2.607802   2.165515   3.459338   3.986962   1.101953
                   16         17         18         19         20
    16  H    0.000000
    17  H    3.914181   0.000000
    18  H    5.193229   2.557000   0.000000
    19  H    4.764122   4.244943   2.567371   0.000000
    20  H    2.510817   4.011940   6.223708   6.678191   0.000000
    21  H    3.085596   2.560301   4.973068   5.934146   1.776184
    22  H    2.515679   2.817263   4.950112   5.721413   1.791269
    23  H    3.659755   3.280113   4.288181   4.470896   4.155276
    24  H    5.491700   5.680486   6.558882   6.429265   5.697148
    25  H    5.912593   7.383585   8.552906   8.065210   5.960214
    26  H    3.282298   6.922613   8.251403   7.363531   4.021461
    27  H    1.948359   5.543712   7.102331   6.612777   2.492392
    28  H    3.521705   6.606127   8.408074   8.053610   3.011330
    29  H    5.159678   8.254778   9.530959   8.582978   5.558626
    30  H    5.334324   8.031522   9.711190   9.219970   4.893024
    31  H    6.123622   8.559115   9.939883   9.249850   6.077121
                   21         22         23         24         25
    21  H    0.000000
    22  H    1.792584   0.000000
    23  H    3.134037   4.284539   0.000000
    24  H    4.993721   6.398184   2.495966   0.000000
    25  H    5.971747   7.193350   4.319429   2.502202   0.000000
    26  H    5.283106   5.199467   5.409973   5.912836   4.882557
    27  H    3.895697   3.498161   4.807596   5.978762   5.583795
    28  H    4.473334   4.588176   5.381245   5.898006   4.897550
    29  H    6.513240   6.971551   5.911936   5.373187   3.482300
    30  H    5.904528   6.555311   5.918417   5.377234   3.488175
    31  H    6.729173   7.596556   5.885481   4.683420   2.325077
                   26         27         28         29         30
    26  H    0.000000
    27  H    1.775908   0.000000
    28  H    1.769565   1.775226   0.000000
    29  H    2.360025   3.915281   3.011323   0.000000
    30  H    2.913930   3.909770   2.393154   1.770594   0.000000
    31  H    3.867931   5.077444   3.915388   1.782562   1.783081
                   31
    31  H    0.000000
 Stoichiometry    C13H16N2
 Framework group  C1[X(C13H16N2)]
 Deg. of freedom    87
 Full point group                 C1      NOp   1
 Largest Abelian subgroup         C1      NOp   1
 Largest concise Abelian subgroup C1      NOp   1
                         Standard orientation:                         
 ---------------------------------------------------------------------
 Center     Atomic      Atomic             Coordinates (Angstroms)
 Number     Number       Type             X           Y           Z
 ---------------------------------------------------------------------
      1          6           0        2.017022    0.348397    0.119666
      2          6           0        3.054209    0.103802   -0.766812
      3          7           0        4.015935   -0.570981   -0.032138
      4          6           0        3.532384   -0.703272    1.245381
      5          7           0        2.330938   -0.162026    1.371991
      6          6           0        0.703873    1.045200   -0.121969
      7          6           0        0.729651    1.877455   -1.419468
      8          6           0       -0.492006    0.084824   -0.141355
      9          6           0       -0.302834   -1.235355   -0.588365
     10          6           0       -1.372777   -2.128567   -0.678427
     11          6           0       -2.656019   -1.706393   -0.315699
     12          6           0       -2.878914   -0.394906    0.131455
     13          6           0       -1.793534    0.516442    0.215758
     14          6           0       -2.086618    1.925653    0.682267
     15          6           0       -4.274014    0.037440    0.516403
     16          1           0        0.576463    1.734010    0.732579
     17          1           0        3.199733    0.342507   -1.817517
     18          1           0        4.916439   -0.892142   -0.379877
     19          1           0        4.099182   -1.197142    2.034757
     20          1           0       -0.214503    2.431745   -1.545960
     21          1           0        0.842361    1.218348   -2.297981
     22          1           0        1.563860    2.600213   -1.412969
     23          1           0        0.707469   -1.560675   -0.855406
     24          1           0       -1.206220   -3.154126   -1.024388
     25          1           0       -3.502495   -2.400037   -0.376710
     26          1           0       -2.559832    1.926040    1.681399
     27          1           0       -1.189516    2.556982    0.744385
     28          1           0       -2.797323    2.431637    0.002313
     29          1           0       -4.327462    0.366227    1.571013
     30          1           0       -4.625485    0.890283   -0.093784
     31          1           0       -4.993326   -0.787136    0.386149
 ---------------------------------------------------------------------
 Rotational constants (GHZ):           1.2520739           0.3560859           0.3204699
 Leave Link  202 at Sun Oct  9 16:16:28 2022, MaxMem=  3221225472 cpu:               0.1 elap:               0.0
 (Enter /public/gkxiao/software/g16/l301.exe)
 Standard basis: 6-311+G(2d,p) (5D, 7F)
 Ernie: Thresh=  0.10000D-02 Tol=  0.10000D-05 Strict=F.
 There are   531 symmetry adapted cartesian basis functions of A   symmetry.
 There are   501 symmetry adapted basis functions of A   symmetry.
   501 basis functions,   758 primitive gaussians,   531 cartesian basis functions
    54 alpha electrons       54 beta electrons
       nuclear repulsion energy       951.4444171741 Hartrees.
 IExCor= 3731 DFT=T Ex+Corr=APFD ExCW=0 ScaHFX=  0.229450
 ScaDFX=  1.000000  1.000000  1.000000  1.000000 ScalE2=  1.000000  1.000000
 IRadAn=      5 IRanWt=     -1 IRanGd=            0 ICorTp=0 IEmpDi=211
 NAtoms=   31 NActive=   31 NUniq=   31 SFac= 1.00D+00 NAtFMM=   60 NAOKFM=F Big=F
 Integral buffers will be    131072 words long.
 Raffenetti 2 integral format.
 Two-electron integral symmetry is turned on.
 R6APFD:  NTU= -4 IXU= 1 FactS= 1.050
 R6Disp:  Petersson-Frisch Dispersion energy=       -0.0239971387 Hartrees.
 Nuclear repulsion after empirical dispersion term =      951.4204200354 Hartrees.
 ------------------------------------------------------------------------------
 Polarizable Continuum Model (PCM)
 =================================
 Model                : PCM.
 Atomic radii         : UFF (Universal Force Field).
 Polarization charges : Total charges.
 Charge compensation  : None.
 Solution method      : On-the-fly selection.
 Cavity type          : Scaled VdW (van der Waals Surface) (Alpha=1.100).
 Cavity algorithm     : GePol (No added spheres)
                        Default sphere list used, NSphG=   31.
                        Lebedev-Laikov grids with approx.  5.0 points / Ang**2.
                        Smoothing algorithm: York/Karplus (Gamma=1.0000).
                        Polarization charges: spherical gaussians, with
                                              point-specific exponents (IZeta= 3).
                        Self-potential: point-specific (ISelfS= 7).
                        Self-field    : sphere-specific E.n sum rule (ISelfD= 2).
 1st derivatives      : Analytical E(r).r(x)/FMM algorithm (CHGder, D1EAlg=3).
                        Cavity 1st derivative terms included.
 Solvent              : Methanol, Eps=  32.613000 Eps(inf)=   1.765709
 ------------------------------------------------------------------------------
 GePol: Number of generator spheres                  =      31
 GePol: Total number of spheres                      =      31
 GePol: Number of exposed spheres                    =      31 (100.00%)
 GePol: Number of points                             =    2215
 GePol: Average weight of points                     =       0.13
 GePol: Minimum weight of points                     =   0.31D-10
 GePol: Maximum weight of points                     =    0.20577
 GePol: Number of points with low weight             =     145
 GePol: Fraction of low-weight points (<1% of avg)   =       6.55%
 GePol: Cavity surface area                          =    290.665 Ang**2
 GePol: Cavity volume                                =    312.125 Ang**3
 Leave Link  301 at Sun Oct  9 16:16:28 2022, MaxMem=  3221225472 cpu:               3.5 elap:               0.2
 (Enter /public/gkxiao/software/g16/l302.exe)
 NPDir=0 NMtPBC=     1 NCelOv=     1 NCel=       1 NClECP=     1 NCelD=      1
         NCelK=      1 NCelE2=     1 NClLst=     1 CellRange=     0.0.
 One-electron integrals computed using PRISM.
 One-electron integral symmetry used in STVInt
 NBasis=   501 RedAO= T EigKep=  1.13D-06  NBF=   501
 NBsUse=   498 1.00D-06 EigRej=  8.75D-07 NBFU=   498
 Precomputing XC quadrature grid using
 IXCGrd= 4 IRadAn=           5 IRanWt=          -1 IRanGd=           0 AccXCQ= 0.00D+00.
 Generated NRdTot=       0 NPtTot=           0 NUsed=           0 NTot=          32
 NSgBfM=   531   531   531   531   531 MxSgAt=    31 MxSgA2=    31.
 Leave Link  302 at Sun Oct  9 16:16:29 2022, MaxMem=  3221225472 cpu:              17.3 elap:               0.8
 (Enter /public/gkxiao/software/g16/l303.exe)
 DipDrv:  MaxL=1.
 Leave Link  303 at Sun Oct  9 16:16:29 2022, MaxMem=  3221225472 cpu:               3.0 elap:               0.2
 (Enter /public/gkxiao/software/g16/l401.exe)
 ExpMin= 4.38D-02 ExpMax= 6.29D+03 ExpMxC= 9.49D+02 IAcc=3 IRadAn=         5 AccDes= 0.00D+00
 Harris functional with IExCor= 3731 and IRadAn=       5 diagonalized for initial guess.
 HarFok:  IExCor= 3731 AccDes= 0.00D+00 IRadAn=         5 IDoV= 1 UseB2=F ITyADJ=14
 ICtDFT=  3500011 ScaDFX=  1.000000  1.000000  1.000000  1.000000
 FoFCou: FMM=F IPFlag=           0 FMFlag=      100000 FMFlg1=           0
         NFxFlg=           0 DoJE=T BraDBF=F KetDBF=T FulRan=T
         wScrn=  0.000000 ICntrl=       500 IOpCl=  0 I1Cent=   200000004 NGrid=           0
         NMat0=    1 NMatS0=      1 NMatT0=    0 NMatD0=    1 NMtDS0=    0 NMtDT0=    0
 Petite list used in FoFCou.
 Harris En= -594.722819486547    
 JPrj=0 DoOrth=F DoCkMO=F.
 Leave Link  401 at Sun Oct  9 16:16:31 2022, MaxMem=  3221225472 cpu:              43.7 elap:               1.9
 (Enter /public/gkxiao/software/g16/l502.exe)
 Integral symmetry usage will be decided dynamically.
 Closed shell SCF:
 Using DIIS extrapolation, IDIIS=  1040.
 NGot=  3221225472 LenX=  3220643817 LenY=  3220361325
 Requested convergence on RMS density matrix=1.00D-08 within 128 cycles.
 Requested convergence on MAX density matrix=1.00D-06.
 Requested convergence on             energy=1.00D-06.
 No special actions if energy rises.
 Fock matrices will be formed incrementally for  20 cycles.

 Cycle   1  Pass 1  IDiag  1:
 FoFJK:  IHMeth= 1 ICntrl=       0 DoSepK=F KAlg= 0 I1Cent=           0 FoldK=F
 IRaf= 870000000 NMat=       1 IRICut=       1 DoRegI=T DoRafI=F ISym2E= 0 IDoP0=0 IntGTp=1.
 FoFCou: FMM=F IPFlag=           0 FMFlag=      100000 FMFlg1=           0
         NFxFlg=           0 DoJE=F BraDBF=F KetDBF=F FulRan=T
         wScrn=  0.000000 ICntrl=         0 IOpCl=  0 I1Cent=           0 NGrid=           0
         NMat0=    1 NMatS0=      1 NMatT0=    0 NMatD0=    1 NMtDS0=    0 NMtDT0=    0
 Symmetry not used in FoFCou.
 Inv3:  Mode=1 IEnd=    14718675.
 Iteration    1 A*A^-1 deviation from unit magnitude is 3.77D-15 for   1337.
 Iteration    1 A*A^-1 deviation from orthogonality  is 2.23D-15 for   2028     77.
 Iteration    1 A^-1*A deviation from unit magnitude is 3.77D-15 for   1865.
 Iteration    1 A^-1*A deviation from orthogonality  is 2.55D-14 for   1713   1702.
 E= -614.032468218637    
 DIIS: error= 5.75D-02 at cycle   1 NSaved=   1.
 NSaved= 1 IEnMin= 1 EnMin= -614.032468218637     IErMin= 1 ErrMin= 5.75D-02
 ErrMax= 5.75D-02  0.00D+00 EMaxC= 1.00D-01 BMatC= 1.38D+00 BMatP= 1.38D+00
 IDIUse=3 WtCom= 4.25D-01 WtEn= 5.75D-01
 Coeff-Com:  0.100D+01
 Coeff-En:   0.100D+01
 Coeff:      0.100D+01
 Gap=     0.266 Goal=   None    Shift=    0.000
 GapD=    0.266 DampG=1.000 DampE=0.500 DampFc=0.5000 IDamp=-1.
 Damping current iteration by 5.00D-01
 RMSDP=9.97D-03 MaxDP=1.12D+00              OVMax= 1.09D-01

 Cycle   2  Pass 1  IDiag  1:
 RMSU=  1.86D-03    CP:  8.55D-01
 E= -614.113367082403     Delta-E=       -0.080898863765 Rises=F Damp=T
 DIIS: error= 2.70D-02 at cycle   2 NSaved=   2.
 NSaved= 2 IEnMin= 2 EnMin= -614.113367082403     IErMin= 2 ErrMin= 2.70D-02
 ErrMax= 2.70D-02  0.00D+00 EMaxC= 1.00D-01 BMatC= 3.00D-01 BMatP= 1.38D+00
 IDIUse=3 WtCom= 7.30D-01 WtEn= 2.70D-01
 Coeff-Com: -0.691D+00 0.169D+01
 Coeff-En:   0.000D+00 0.100D+01
 Coeff:     -0.504D+00 0.150D+01
 Gap=     0.298 Goal=   None    Shift=    0.000
 RMSDP=4.04D-03 MaxDP=3.41D-01 DE=-8.09D-02 OVMax= 1.28D-01

 Cycle   3  Pass 1  IDiag  1:
 RMSU=  2.46D-03    CP:  7.56D-01  1.17D+00
 E= -614.120984876373     Delta-E=       -0.007617793970 Rises=F Damp=F
 DIIS: error= 1.27D-02 at cycle   3 NSaved=   3.
 NSaved= 3 IEnMin= 3 EnMin= -614.120984876373     IErMin= 3 ErrMin= 1.27D-02
 ErrMax= 1.27D-02  0.00D+00 EMaxC= 1.00D-01 BMatC= 9.55D-02 BMatP= 3.00D-01
 IDIUse=3 WtCom= 8.73D-01 WtEn= 1.27D-01
 Coeff-Com: -0.429D+00 0.927D+00 0.502D+00
 Coeff-En:   0.000D+00 0.448D+00 0.552D+00
 Coeff:     -0.374D+00 0.866D+00 0.508D+00
 Gap=     0.232 Goal=   None    Shift=    0.000
 RMSDP=2.27D-03 MaxDP=2.19D-01 DE=-7.62D-03 OVMax= 1.04D-01

 Cycle   4  Pass 1  IDiag  1:
 RMSU=  8.51D-04    CP:  7.10D-01  1.55D+00  4.58D-01
 E= -614.201598564997     Delta-E=       -0.080613688624 Rises=F Damp=F
 DIIS: error= 2.90D-03 at cycle   4 NSaved=   4.
 NSaved= 4 IEnMin= 4 EnMin= -614.201598564997     IErMin= 4 ErrMin= 2.90D-03
 ErrMax= 2.90D-03  0.00D+00 EMaxC= 1.00D-01 BMatC= 5.12D-03 BMatP= 9.55D-02
 IDIUse=3 WtCom= 9.71D-01 WtEn= 2.90D-02
 Coeff-Com: -0.225D+00 0.485D+00 0.322D+00 0.417D+00
 Coeff-En:   0.000D+00 0.000D+00 0.000D+00 0.100D+01
 Coeff:     -0.218D+00 0.471D+00 0.313D+00 0.434D+00
 Gap=     0.226 Goal=   None    Shift=    0.000
 RMSDP=4.40D-04 MaxDP=3.58D-02 DE=-8.06D-02 OVMax= 2.34D-02

 Cycle   5  Pass 1  IDiag  1:
 RMSU=  1.86D-04    CP:  7.17D-01  1.54D+00  5.22D-01  6.69D-01
 E= -614.206188716701     Delta-E=       -0.004590151704 Rises=F Damp=F
 DIIS: error= 4.27D-04 at cycle   5 NSaved=   5.
 NSaved= 5 IEnMin= 5 EnMin= -614.206188716701     IErMin= 5 ErrMin= 4.27D-04
 ErrMax= 4.27D-04  0.00D+00 EMaxC= 1.00D-01 BMatC= 1.30D-04 BMatP= 5.12D-03
 IDIUse=3 WtCom= 9.96D-01 WtEn= 4.27D-03
 Coeff-Com: -0.635D-01 0.137D+00 0.103D+00 0.201D+00 0.622D+00
 Coeff-En:   0.000D+00 0.000D+00 0.000D+00 0.000D+00 0.100D+01
 Coeff:     -0.632D-01 0.137D+00 0.103D+00 0.200D+00 0.623D+00
 Gap=     0.227 Goal=   None    Shift=    0.000
 RMSDP=1.44D-04 MaxDP=1.33D-02 DE=-4.59D-03 OVMax= 4.67D-03

 Cycle   6  Pass 1  IDiag  1:
 RMSU=  6.75D-05    CP:  7.14D-01  1.53D+00  5.22D-01  7.47D-01  8.77D-01
 E= -614.206277951543     Delta-E=       -0.000089234842 Rises=F Damp=F
 DIIS: error= 2.05D-04 at cycle   6 NSaved=   6.
 NSaved= 6 IEnMin= 6 EnMin= -614.206277951543     IErMin= 6 ErrMin= 2.05D-04
 ErrMax= 2.05D-04  0.00D+00 EMaxC= 1.00D-01 BMatC= 3.59D-05 BMatP= 1.30D-04
 IDIUse=3 WtCom= 9.98D-01 WtEn= 2.05D-03
 Coeff-Com:  0.796D-03-0.184D-02 0.666D-02 0.420D-01 0.382D+00 0.570D+00
 Coeff-En:   0.000D+00 0.000D+00 0.000D+00 0.000D+00 0.237D+00 0.763D+00
 Coeff:      0.795D-03-0.183D-02 0.665D-02 0.419D-01 0.382D+00 0.571D+00
 Gap=     0.226 Goal=   None    Shift=    0.000
 RMSDP=3.80D-05 MaxDP=2.44D-03 DE=-8.92D-05 OVMax= 1.75D-03

 Cycle   7  Pass 1  IDiag  1:
 RMSU=  2.57D-05    CP:  7.14D-01  1.53D+00  5.29D-01  7.56D-01  9.39D-01
                    CP:  7.95D-01
 E= -614.206311554261     Delta-E=       -0.000033602718 Rises=F Damp=F
 DIIS: error= 2.40D-05 at cycle   7 NSaved=   7.
 NSaved= 7 IEnMin= 7 EnMin= -614.206311554261     IErMin= 7 ErrMin= 2.40D-05
 ErrMax= 2.40D-05  0.00D+00 EMaxC= 1.00D-01 BMatC= 6.71D-07 BMatP= 3.59D-05
 IDIUse=1 WtCom= 1.00D+00 WtEn= 0.00D+00
 Coeff-Com:  0.207D-02-0.450D-02-0.557D-04 0.112D-01 0.138D+00 0.238D+00
 Coeff-Com:  0.616D+00
 Coeff:      0.207D-02-0.450D-02-0.557D-04 0.112D-01 0.138D+00 0.238D+00
 Coeff:      0.616D+00
 Gap=     0.226 Goal=   None    Shift=    0.000
 RMSDP=6.37D-06 MaxDP=3.62D-04 DE=-3.36D-05 OVMax= 3.47D-04

 Cycle   8  Pass 1  IDiag  1:
 RMSU=  5.64D-06    CP:  7.14D-01  1.53D+00  5.29D-01  7.55D-01  9.42D-01
                    CP:  7.98D-01  9.12D-01
 E= -614.206312055779     Delta-E=       -0.000000501518 Rises=F Damp=F
 DIIS: error= 1.68D-05 at cycle   8 NSaved=   8.
 NSaved= 8 IEnMin= 8 EnMin= -614.206312055779     IErMin= 8 ErrMin= 1.68D-05
 ErrMax= 1.68D-05  0.00D+00 EMaxC= 1.00D-01 BMatC= 1.49D-07 BMatP= 6.71D-07
 IDIUse=1 WtCom= 1.00D+00 WtEn= 0.00D+00
 Coeff-Com:  0.132D-02-0.284D-02-0.119D-02 0.620D-03 0.290D-01 0.631D-01
 Coeff-Com:  0.343D+00 0.567D+00
 Coeff:      0.132D-02-0.284D-02-0.119D-02 0.620D-03 0.290D-01 0.631D-01
 Coeff:      0.343D+00 0.567D+00
 Gap=     0.226 Goal=   None    Shift=    0.000
 RMSDP=3.35D-06 MaxDP=2.06D-04 DE=-5.02D-07 OVMax= 1.62D-04

 Cycle   9  Pass 1  IDiag  1:
 RMSU=  1.63D-06    CP:  7.14D-01  1.53D+00  5.29D-01  7.57D-01  9.45D-01
                    CP:  8.09D-01  9.73D-01  9.87D-01
 E= -614.206312198087     Delta-E=       -0.000000142308 Rises=F Damp=F
 DIIS: error= 4.13D-06 at cycle   9 NSaved=   9.
 NSaved= 9 IEnMin= 9 EnMin= -614.206312198087     IErMin= 9 ErrMin= 4.13D-06
 ErrMax= 4.13D-06  0.00D+00 EMaxC= 1.00D-01 BMatC= 8.52D-09 BMatP= 1.49D-07
 IDIUse=1 WtCom= 1.00D+00 WtEn= 0.00D+00
 Coeff-Com:  0.324D-03-0.686D-03-0.404D-03-0.603D-03-0.230D-03 0.561D-02
 Coeff-Com:  0.876D-01 0.248D+00 0.661D+00
 Coeff:      0.324D-03-0.686D-03-0.404D-03-0.603D-03-0.230D-03 0.561D-02
 Coeff:      0.876D-01 0.248D+00 0.661D+00
 Gap=     0.226 Goal=   None    Shift=    0.000
 RMSDP=1.17D-06 MaxDP=7.03D-05 DE=-1.42D-07 OVMax= 4.42D-05

 Cycle  10  Pass 1  IDiag  1:
 RMSU=  6.29D-07    CP:  7.14D-01  1.53D+00  5.29D-01  7.57D-01  9.46D-01
                    CP:  8.17D-01  9.85D-01  1.02D+00  9.51D-01
 E= -614.206312206215     Delta-E=       -0.000000008127 Rises=F Damp=F
 DIIS: error= 1.38D-06 at cycle  10 NSaved=  10.
 NSaved=10 IEnMin=10 EnMin= -614.206312206215     IErMin=10 ErrMin= 1.38D-06
 ErrMax= 1.38D-06  0.00D+00 EMaxC= 1.00D-01 BMatC= 1.71D-09 BMatP= 8.52D-09
 IDIUse=1 WtCom= 1.00D+00 WtEn= 0.00D+00
 Coeff-Com:  0.193D-04-0.373D-04-0.733D-04-0.448D-03-0.380D-02-0.436D-02
 Coeff-Com:  0.752D-02 0.685D-01 0.368D+00 0.565D+00
 Coeff:      0.193D-04-0.373D-04-0.733D-04-0.448D-03-0.380D-02-0.436D-02
 Coeff:      0.752D-02 0.685D-01 0.368D+00 0.565D+00
 Gap=     0.226 Goal=   None    Shift=    0.000
 RMSDP=5.29D-07 MaxDP=5.13D-05 DE=-8.13D-09 OVMax= 1.41D-05

 Cycle  11  Pass 1  IDiag  1:
 RMSU=  1.94D-07    CP:  7.14D-01  1.53D+00  5.29D-01  7.57D-01  9.46D-01
                    CP:  8.17D-01  9.92D-01  1.04D+00  1.01D+00  8.97D-01
 E= -614.206312207959     Delta-E=       -0.000000001744 Rises=F Damp=F
 DIIS: error= 3.92D-07 at cycle  11 NSaved=  11.
 NSaved=11 IEnMin=11 EnMin= -614.206312207959     IErMin=11 ErrMin= 3.92D-07
 ErrMax= 3.92D-07  0.00D+00 EMaxC= 1.00D-01 BMatC= 1.22D-10 BMatP= 1.71D-09
 IDIUse=1 WtCom= 1.00D+00 WtEn= 0.00D+00
 Coeff-Com: -0.202D-04 0.439D-04 0.294D-05-0.187D-03-0.194D-02-0.276D-02
 Coeff-Com: -0.686D-02 0.232D-02 0.103D+00 0.259D+00 0.647D+00
 Coeff:     -0.202D-04 0.439D-04 0.294D-05-0.187D-03-0.194D-02-0.276D-02
 Coeff:     -0.686D-02 0.232D-02 0.103D+00 0.259D+00 0.647D+00
 Gap=     0.226 Goal=   None    Shift=    0.000
 RMSDP=1.20D-07 MaxDP=1.54D-05 DE=-1.74D-09 OVMax= 3.35D-06

 Cycle  12  Pass 1  IDiag  1:
 RMSU=  7.00D-08    CP:  7.14D-01  1.53D+00  5.29D-01  7.57D-01  9.46D-01
                    CP:  8.17D-01  9.92D-01  1.05D+00  1.04D+00  9.54D-01
                    CP:  9.39D-01
 E= -614.206312208063     Delta-E=       -0.000000000104 Rises=F Damp=F
 DIIS: error= 1.02D-07 at cycle  12 NSaved=  12.
 NSaved=12 IEnMin=12 EnMin= -614.206312208063     IErMin=12 ErrMin= 1.02D-07
 ErrMax= 1.02D-07  0.00D+00 EMaxC= 1.00D-01 BMatC= 1.65D-11 BMatP= 1.22D-10
 IDIUse=1 WtCom= 1.00D+00 WtEn= 0.00D+00
 Coeff-Com: -0.101D-04 0.214D-04 0.107D-04-0.359D-04-0.381D-03-0.572D-03
 Coeff-Com: -0.357D-02-0.753D-02 0.209D-02 0.499D-01 0.319D+00 0.641D+00
 Coeff:     -0.101D-04 0.214D-04 0.107D-04-0.359D-04-0.381D-03-0.572D-03
 Coeff:     -0.357D-02-0.753D-02 0.209D-02 0.499D-01 0.319D+00 0.641D+00
 Gap=     0.226 Goal=   None    Shift=    0.000
 RMSDP=5.01D-08 MaxDP=2.99D-06 DE=-1.04D-10 OVMax= 1.64D-06

 Cycle  13  Pass 1  IDiag  1:
 RMSU=  2.14D-08    CP:  7.14D-01  1.53D+00  5.29D-01  7.57D-01  9.46D-01
                    CP:  8.17D-01  9.92D-01  1.05D+00  1.05D+00  9.89D-01
                    CP:  9.83D-01  1.08D+00
 E= -614.206312208083     Delta-E=       -0.000000000020 Rises=F Damp=F
 DIIS: error= 2.38D-08 at cycle  13 NSaved=  13.
 NSaved=13 IEnMin=13 EnMin= -614.206312208083     IErMin=13 ErrMin= 2.38D-08
 ErrMax= 2.38D-08  0.00D+00 EMaxC= 1.00D-01 BMatC= 7.16D-13 BMatP= 1.65D-11
 IDIUse=1 WtCom= 1.00D+00 WtEn= 0.00D+00
 Coeff-Com: -0.236D-05 0.490D-05 0.395D-05-0.663D-06-0.287D-05-0.788D-05
 Coeff-Com: -0.882D-03-0.328D-02-0.719D-02-0.368D-03 0.760D-01 0.249D+00
 Coeff-Com:  0.687D+00
 Coeff:     -0.236D-05 0.490D-05 0.395D-05-0.663D-06-0.287D-05-0.788D-05
 Coeff:     -0.882D-03-0.328D-02-0.719D-02-0.368D-03 0.760D-01 0.249D+00
 Coeff:      0.687D+00
 Gap=     0.226 Goal=   None    Shift=    0.000
 RMSDP=1.06D-08 MaxDP=9.89D-07 DE=-2.02D-11 OVMax= 2.35D-07

 Cycle  14  Pass 1  IDiag  1:
 RMSU=  5.54D-09    CP:  7.14D-01  1.53D+00  5.29D-01  7.57D-01  9.46D-01
                    CP:  8.17D-01  9.92D-01  1.05D+00  1.05D+00  9.98D-01
                    CP:  9.91D-01  1.15D+00  1.05D+00
 E= -614.206312208076     Delta-E=        0.000000000008 Rises=F Damp=F
 DIIS: error= 1.30D-08 at cycle  14 NSaved=  14.
 NSaved=14 IEnMin=13 EnMin= -614.206312208083     IErMin=14 ErrMin= 1.30D-08
 ErrMax= 1.30D-08  0.00D+00 EMaxC= 1.00D-01 BMatC= 1.04D-13 BMatP= 7.16D-13
 IDIUse=1 WtCom= 1.00D+00 WtEn= 0.00D+00
 Coeff-Com: -0.974D-06 0.203D-05 0.164D-05 0.153D-05 0.103D-04 0.127D-04
 Coeff-Com: -0.232D-03-0.106D-02-0.299D-02-0.237D-02 0.182D-01 0.793D-01
 Coeff-Com:  0.342D+00 0.567D+00
 Coeff:     -0.974D-06 0.203D-05 0.164D-05 0.153D-05 0.103D-04 0.127D-04
 Coeff:     -0.232D-03-0.106D-02-0.299D-02-0.237D-02 0.182D-01 0.793D-01
 Coeff:      0.342D+00 0.567D+00
 Gap=     0.226 Goal=   None    Shift=    0.000
 RMSDP=4.47D-09 MaxDP=3.72D-07 DE= 7.62D-12 OVMax= 1.23D-07

 Error on total polarization charges =  0.01699
 SCF Done:  E(RAPFD) =  -614.206312208     A.U. after   14 cycles
            NFock= 14  Conv=0.45D-08     -V/T= 2.0056
 KE= 6.108103743202D+02 PE=-3.330051950765D+03 EE= 1.153614844201D+03
 Leave Link  502 at Sun Oct  9 16:18:07 2022, MaxMem=  3221225472 cpu:            2271.6 elap:              95.4
 (Enter /public/gkxiao/software/g16/l601.exe)
 Copying SCF densities to generalized density rwf, IOpCl= 0 IROHF=0.

 **********************************************************************

            Population analysis using the SCF density.

 **********************************************************************

 Orbital symmetries:
       Occupied  (A) (A) (A) (A) (A) (A) (A) (A) (A) (A) (A) (A)
                 (A) (A) (A) (A) (A) (A) (A) (A) (A) (A) (A) (A)
                 (A) (A) (A) (A) (A) (A) (A) (A) (A) (A) (A) (A)
                 (A) (A) (A) (A) (A) (A) (A) (A) (A) (A) (A) (A)
                 (A) (A) (A) (A) (A) (A)
       Virtual   (A) (A) (A) (A) (A) (A) (A) (A) (A) (A) (A) (A)
                 (A) (A) (A) (A) (A) (A) (A) (A) (A) (A) (A) (A)
                 (A) (A) (A) (A) (A) (A) (A) (A) (A) (A) (A) (A)
                 (A) (A) (A) (A) (A) (A) (A) (A) (A) (A) (A) (A)
                 (A) (A) (A) (A) (A) (A) (A) (A) (A) (A) (A) (A)
                 (A) (A) (A) (A) (A) (A) (A) (A) (A) (A) (A) (A)
                 (A) (A) (A) (A) (A) (A) (A) (A) (A) (A) (A) (A)
                 (A) (A) (A) (A) (A) (A) (A) (A) (A) (A) (A) (A)
                 (A) (A) (A) (A) (A) (A) (A) (A) (A) (A) (A) (A)
                 (A) (A) (A) (A) (A) (A) (A) (A) (A) (A) (A) (A)
                 (A) (A) (A) (A) (A) (A) (A) (A) (A) (A) (A) (A)
                 (A) (A) (A) (A) (A) (A) (A) (A) (A) (A) (A) (A)
                 (A) (A) (A) (A) (A) (A) (A) (A) (A) (A) (A) (A)
                 (A) (A) (A) (A) (A) (A) (A) (A) (A) (A) (A) (A)
                 (A) (A) (A) (A) (A) (A) (A) (A) (A) (A) (A) (A)
                 (A) (A) (A) (A) (A) (A) (A) (A) (A) (A) (A) (A)
                 (A) (A) (A) (A) (A) (A) (A) (A) (A) (A) (A) (A)
                 (A) (A) (A) (A) (A) (A) (A) (A) (A) (A) (A) (A)
                 (A) (A) (A) (A) (A) (A) (A) (A) (A) (A) (A) (A)
                 (A) (A) (A) (A) (A) (A) (A) (A) (A) (A) (A) (A)
                 (A) (A) (A) (A) (A) (A) (A) (A) (A) (A) (A) (A)
                 (A) (A) (A) (A) (A) (A) (A) (A) (A) (A) (A) (A)
                 (A) (A) (A) (A) (A) (A) (A) (A) (A) (A) (A) (A)
                 (A) (A) (A) (A) (A) (A) (A) (A) (A) (A) (A) (A)
                 (A) (A) (A) (A) (A) (A) (A) (A) (A) (A) (A) (A)
                 (A) (A) (A) (A) (A) (A) (A) (A) (A) (A) (A) (A)
                 (A) (A) (A) (A) (A) (A) (A) (A) (A) (A) (A) (A)
                 (A) (A) (A) (A) (A) (A) (A) (A) (A) (A) (A) (A)
                 (A) (A) (A) (A) (A) (A) (A) (A) (A) (A) (A) (A)
                 (A) (A) (A) (A) (A) (A) (A) (A) (A) (A) (A) (A)
                 (A) (A) (A) (A) (A) (A) (A) (A) (A) (A) (A) (A)
                 (A) (A) (A) (A) (A) (A) (A) (A) (A) (A) (A) (A)
                 (A) (A) (A) (A) (A) (A) (A) (A) (A) (A) (A) (A)
                 (A) (A) (A) (A) (A) (A) (A) (A) (A) (A) (A) (A)
                 (A) (A) (A) (A) (A) (A) (A) (A) (A) (A) (A) (A)
                 (A) (A) (A) (A) (A) (A) (A) (A) (A) (A) (A) (A)
                 (A) (A) (A) (A) (A) (A) (A) (A) (A) (A) (A) (A)
 The electronic state is 1-A.
 Alpha  occ. eigenvalues --  -14.41074 -14.34164 -10.25751 -10.22864 -10.22272
 Alpha  occ. eigenvalues --  -10.21580 -10.21212 -10.21139 -10.21063 -10.19953
 Alpha  occ. eigenvalues --  -10.19759 -10.19603 -10.19284 -10.19281 -10.19083
 Alpha  occ. eigenvalues --   -1.03408  -0.89547  -0.87880  -0.82199  -0.79183
 Alpha  occ. eigenvalues --   -0.76794  -0.73835  -0.70887  -0.68438  -0.66057
 Alpha  occ. eigenvalues --   -0.62203  -0.60375  -0.58799  -0.57727  -0.54519
 Alpha  occ. eigenvalues --   -0.50674  -0.49201  -0.46365  -0.45669  -0.44528
 Alpha  occ. eigenvalues --   -0.44380  -0.44109  -0.43074  -0.42560  -0.40911
 Alpha  occ. eigenvalues --   -0.40345  -0.39850  -0.38910  -0.38702  -0.37624
 Alpha  occ. eigenvalues --   -0.35937  -0.35192  -0.33906  -0.33496  -0.29807
 Alpha  occ. eigenvalues --   -0.29589  -0.25083  -0.24729  -0.23830
 Alpha virt. eigenvalues --   -0.01216  -0.00944   0.01123   0.01133   0.01830
 Alpha virt. eigenvalues --    0.02489   0.03085   0.03526   0.03951   0.04753
 Alpha virt. eigenvalues --    0.04892   0.05181   0.05631   0.06007   0.06411
 Alpha virt. eigenvalues --    0.07064   0.07263   0.08495   0.08762   0.08959
 Alpha virt. eigenvalues --    0.09194   0.09819   0.09971   0.10871   0.11088
 Alpha virt. eigenvalues --    0.11546   0.12210   0.12665   0.12965   0.13892
 Alpha virt. eigenvalues --    0.14271   0.14606   0.15096   0.15703   0.15959
 Alpha virt. eigenvalues --    0.16421   0.16683   0.17108   0.17336   0.17943
 Alpha virt. eigenvalues --    0.18042   0.18770   0.19059   0.19230   0.19775
 Alpha virt. eigenvalues --    0.20106   0.20537   0.20550   0.21030   0.21148
 Alpha virt. eigenvalues --    0.21431   0.21814   0.22151   0.22624   0.22796
 Alpha virt. eigenvalues --    0.23226   0.23635   0.23793   0.24257   0.24581
 Alpha virt. eigenvalues --    0.25027   0.25144   0.25336   0.26132   0.26483
 Alpha virt. eigenvalues --    0.26743   0.26941   0.27911   0.28159   0.28353
 Alpha virt. eigenvalues --    0.29211   0.29468   0.30024   0.30692   0.30827
 Alpha virt. eigenvalues --    0.31424   0.31670   0.32496   0.32981   0.33761
 Alpha virt. eigenvalues --    0.34012   0.35575   0.37057   0.37290   0.37527
 Alpha virt. eigenvalues --    0.39063   0.39591   0.40943   0.41364   0.42851
 Alpha virt. eigenvalues --    0.43469   0.43999   0.44927   0.46280   0.46650
 Alpha virt. eigenvalues --    0.47327   0.48345   0.50059   0.50251   0.51135
 Alpha virt. eigenvalues --    0.52775   0.53434   0.53990   0.54507   0.54589
 Alpha virt. eigenvalues --    0.55226   0.55297   0.56253   0.56607   0.57803
 Alpha virt. eigenvalues --    0.58493   0.59147   0.59623   0.60286   0.60970
 Alpha virt. eigenvalues --    0.61456   0.61919   0.62436   0.63090   0.63598
 Alpha virt. eigenvalues --    0.63808   0.64173   0.65093   0.65457   0.66110
 Alpha virt. eigenvalues --    0.66504   0.66846   0.67650   0.67961   0.68333
 Alpha virt. eigenvalues --    0.68886   0.69561   0.69817   0.70485   0.71584
 Alpha virt. eigenvalues --    0.72755   0.73040   0.73414   0.73783   0.74275
 Alpha virt. eigenvalues --    0.74840   0.76047   0.76805   0.77358   0.77682
 Alpha virt. eigenvalues --    0.78015   0.78337   0.79246   0.80053   0.81356
 Alpha virt. eigenvalues --    0.82131   0.82642   0.83182   0.83510   0.83977
 Alpha virt. eigenvalues --    0.84964   0.85451   0.85944   0.86383   0.88038
 Alpha virt. eigenvalues --    0.89732   0.89966   0.90389   0.91914   0.92970
 Alpha virt. eigenvalues --    0.93617   0.94021   0.95448   0.96024   0.97749
 Alpha virt. eigenvalues --    0.98135   0.99314   1.00392   1.00743   1.01805
 Alpha virt. eigenvalues --    1.02380   1.03362   1.04517   1.06324   1.07757
 Alpha virt. eigenvalues --    1.08545   1.09401   1.10800   1.11702   1.13006
 Alpha virt. eigenvalues --    1.15903   1.16882   1.17619   1.18259   1.19773
 Alpha virt. eigenvalues --    1.21036   1.22432   1.23467   1.24715   1.26297
 Alpha virt. eigenvalues --    1.26587   1.27615   1.28725   1.29814   1.30940
 Alpha virt. eigenvalues --    1.31331   1.31439   1.32257   1.33850   1.34231
 Alpha virt. eigenvalues --    1.35334   1.36354   1.37188   1.37398   1.38725
 Alpha virt. eigenvalues --    1.40086   1.40991   1.41318   1.42369   1.42934
 Alpha virt. eigenvalues --    1.44460   1.44660   1.45989   1.47156   1.48735
 Alpha virt. eigenvalues --    1.49087   1.49830   1.50416   1.51576   1.53101
 Alpha virt. eigenvalues --    1.55711   1.57280   1.59240   1.59676   1.61059
 Alpha virt. eigenvalues --    1.62867   1.64220   1.66108   1.67042   1.69168
 Alpha virt. eigenvalues --    1.70843   1.73126   1.73328   1.75972   1.77176
 Alpha virt. eigenvalues --    1.77778   1.78616   1.78873   1.81115   1.86570
 Alpha virt. eigenvalues --    1.87716   1.88670   1.88832   1.89721   1.91206
 Alpha virt. eigenvalues --    1.92919   1.93965   1.96846   1.97894   1.99320
 Alpha virt. eigenvalues --    2.00895   2.05834   2.07071   2.07955   2.11285
 Alpha virt. eigenvalues --    2.13152   2.14383   2.18241   2.18471   2.20436
 Alpha virt. eigenvalues --    2.23060   2.24668   2.25654   2.26455   2.28050
 Alpha virt. eigenvalues --    2.28683   2.32685   2.33814   2.34306   2.35673
 Alpha virt. eigenvalues --    2.36663   2.38017   2.39906   2.41435   2.42343
 Alpha virt. eigenvalues --    2.43013   2.44560   2.47951   2.51360   2.52299
 Alpha virt. eigenvalues --    2.53797   2.55109   2.58877   2.61455   2.66344
 Alpha virt. eigenvalues --    2.69812   2.70678   2.72120   2.73018   2.74336
 Alpha virt. eigenvalues --    2.75510   2.77548   2.78615   2.79644   2.80631
 Alpha virt. eigenvalues --    2.82799   2.84175   2.86149   2.87291   2.88595
 Alpha virt. eigenvalues --    2.90099   2.90516   2.91148   2.92901   2.94139
 Alpha virt. eigenvalues --    2.97306   2.98972   3.00500   3.02545   3.04387
 Alpha virt. eigenvalues --    3.06498   3.08941   3.11003   3.13258   3.13762
 Alpha virt. eigenvalues --    3.15652   3.17433   3.19196   3.20918   3.21342
 Alpha virt. eigenvalues --    3.23708   3.24969   3.26398   3.27558   3.28638
 Alpha virt. eigenvalues --    3.29833   3.29953   3.31328   3.31982   3.32212
 Alpha virt. eigenvalues --    3.33766   3.34942   3.36956   3.38610   3.40361
 Alpha virt. eigenvalues --    3.40682   3.41710   3.43047   3.44189   3.45695
 Alpha virt. eigenvalues --    3.47196   3.48118   3.48953   3.50483   3.51670
 Alpha virt. eigenvalues --    3.53556   3.53850   3.54859   3.55553   3.56632
 Alpha virt. eigenvalues --    3.58428   3.59527   3.59975   3.60611   3.62017
 Alpha virt. eigenvalues --    3.63154   3.64790   3.65052   3.65912   3.67671
 Alpha virt. eigenvalues --    3.68524   3.70229   3.71205   3.72024   3.73060
 Alpha virt. eigenvalues --    3.73661   3.75415   3.77175   3.79228   3.80614
 Alpha virt. eigenvalues --    3.81854   3.82404   3.84511   3.86607   3.88508
 Alpha virt. eigenvalues --    3.89305   3.89950   3.92203   3.93133   3.93982
 Alpha virt. eigenvalues --    3.95087   3.95613   3.98280   4.00846   4.02746
 Alpha virt. eigenvalues --    4.05672   4.06569   4.07821   4.11207   4.12019
 Alpha virt. eigenvalues --    4.12928   4.17812   4.21257   4.21758   4.24428
 Alpha virt. eigenvalues --    4.24732   4.28767   4.29053   4.29526   4.33785
 Alpha virt. eigenvalues --    4.36317   4.41496   4.47917   4.60309   4.64241
 Alpha virt. eigenvalues --    4.70015   4.73782   4.74864   4.89548   4.90829
 Alpha virt. eigenvalues --    4.94051   4.96260   5.01634   5.06517   5.09572
 Alpha virt. eigenvalues --    5.12100   5.17267   5.29746   5.31774   5.32376
 Alpha virt. eigenvalues --    5.42223   5.50560   5.64337   5.70633  23.71406
 Alpha virt. eigenvalues --   23.91331  23.98722  23.99767  24.04608  24.12846
 Alpha virt. eigenvalues --   24.14263  24.16067  24.18835  24.20591  24.21560
 Alpha virt. eigenvalues --   24.26118  24.47596  35.68510  35.76021
          Condensed to atoms (all electrons):
               1          2          3          4          5          6
     1  C   10.251573  -1.302501   0.144676  -0.156399   0.442661  -1.723853
     2  C   -1.302501   7.326237   0.182724  -0.125297   0.158060  -0.599694
     3  N    0.144676   0.182724   6.460945   0.343447   0.019938  -0.109435
     4  C   -0.156399  -0.125297   0.343447   5.112398   0.370546  -0.100946
     5  N    0.442661   0.158060   0.019938   0.370546   6.874591  -0.335845
     6  C   -1.723853  -0.599694  -0.109435  -0.100946  -0.335845  10.147319
     7  C    0.077897  -0.387535   0.005247  -0.007346   0.017784   0.360752
     8  C   -2.075626   0.657304  -0.075769  -0.068384  -0.007420  -0.641196
     9  C    1.484895  -0.002125   0.028741   0.066527   0.057686  -2.129190
    10  C    0.101972  -0.194854   0.014225  -0.007910  -0.049386   0.659716
    11  C    0.439362   0.014568   0.001713   0.007266   0.012463  -0.892759
    12  C    0.146361   0.093605  -0.000515  -0.000254   0.003616  -1.074574
    13  C   -1.071627  -0.042957  -0.006612  -0.009304  -0.028802   1.790534
    14  C    0.003193   0.011597   0.000353  -0.001066   0.002239  -0.435487
    15  C   -0.117812   0.002625  -0.000279  -0.001494  -0.001742   0.115204
    16  H   -0.153695   0.006689  -0.000678  -0.004372  -0.015570   0.419799
    17  H   -0.069195   0.409575  -0.039546   0.011476   0.005064   0.056289
    18  H    0.053648  -0.096973   0.389947  -0.024345   0.000031   0.001570
    19  H    0.049169  -0.024381  -0.050064   0.431886  -0.061595   0.007697
    20  H    0.066531   0.012367   0.000216   0.001289   0.000476  -0.021360
    21  H   -0.058315  -0.014670  -0.000381  -0.002283  -0.002084   0.001296
    22  H    0.054810  -0.009073   0.000372   0.000982   0.000928  -0.121740
    23  H    0.009232   0.000635   0.004312   0.004153  -0.001277  -0.003334
    24  H   -0.002331   0.000993  -0.000055  -0.000173   0.000036  -0.004186
    25  H   -0.000766  -0.000070  -0.000001  -0.000014   0.000007   0.002761
    26  H    0.014589   0.000382   0.000005   0.000122   0.000128  -0.011047
    27  H    0.010192  -0.002678  -0.000050  -0.000423  -0.000293   0.000554
    28  H   -0.004298  -0.000407  -0.000000   0.000027   0.000011   0.009234
    29  H    0.001379   0.000044   0.000000  -0.000005  -0.000001  -0.004169
    30  H   -0.000820  -0.000021  -0.000000   0.000003  -0.000005  -0.002135
    31  H   -0.000119  -0.000009  -0.000000   0.000000   0.000003   0.002007
               7          8          9         10         11         12
     1  C    0.077897  -2.075626   1.484895   0.101972   0.439362   0.146361
     2  C   -0.387535   0.657304  -0.002125  -0.194854   0.014568   0.093605
     3  N    0.005247  -0.075769   0.028741   0.014225   0.001713  -0.000515
     4  C   -0.007346  -0.068384   0.066527  -0.007910   0.007266  -0.000254
     5  N    0.017784  -0.007420   0.057686  -0.049386   0.012463   0.003616
     6  C    0.360752  -0.641196  -2.129190   0.659716  -0.892759  -1.074574
     7  C    5.928424  -0.450607  -0.013814   0.139196  -0.043587  -0.099805
     8  C   -0.450607   8.328131   0.052976  -1.288152   0.443500   0.493878
     9  C   -0.013814   0.052976   8.528253  -1.329728   0.877238   0.687076
    10  C    0.139196  -1.288152  -1.329728   7.819030  -0.152889  -0.535654
    11  C   -0.043587   0.443500   0.877238  -0.152889   8.147530   0.677117
    12  C   -0.099805   0.493878   0.687076  -0.535654   0.677117   7.287466
    13  C    0.141610  -0.058526  -1.948122   0.878632  -2.720121  -1.702058
    14  C   -0.058815   0.113140  -0.124152   0.078270   0.096772   0.328609
    15  C    0.004212  -0.224256  -0.136806   0.019891  -0.642630  -0.652397
    16  H   -0.022490   0.030980  -0.000250  -0.001039  -0.001310   0.006365
    17  H   -0.002045   0.009638  -0.015595  -0.000224  -0.000660  -0.000239
    18  H    0.000385  -0.001128   0.001281   0.000291  -0.000034   0.000032
    19  H    0.000330   0.000915  -0.001001  -0.000139  -0.000043  -0.000054
    20  H    0.364816  -0.048189   0.015164  -0.000911   0.000892   0.003371
    21  H    0.452276  -0.014057   0.005811   0.008902  -0.005536   0.005417
    22  H    0.433424   0.014228   0.002394   0.000100   0.002003  -0.001530
    23  H   -0.008052  -0.043065   0.452701  -0.093601   0.012686   0.011374
    24  H   -0.000291  -0.003783  -0.037978   0.442867  -0.069406   0.004732
    25  H    0.000006   0.012408   0.000583  -0.021782   0.382359  -0.055181
    26  H   -0.005605   0.031909   0.003802  -0.001222   0.025844   0.047197
    27  H   -0.009456  -0.013554   0.010932   0.004227  -0.001865   0.033757
    28  H    0.003139  -0.006056   0.000307  -0.003669  -0.005637  -0.022514
    29  H   -0.000394   0.001349   0.008008  -0.003493   0.048568  -0.000978
    30  H    0.000698  -0.009243   0.003632  -0.004022  -0.000691  -0.068873
    31  H   -0.000032   0.003749  -0.005521   0.019380  -0.033216  -0.068934
              13         14         15         16         17         18
     1  C   -1.071627   0.003193  -0.117812  -0.153695  -0.069195   0.053648
     2  C   -0.042957   0.011597   0.002625   0.006689   0.409575  -0.096973
     3  N   -0.006612   0.000353  -0.000279  -0.000678  -0.039546   0.389947
     4  C   -0.009304  -0.001066  -0.001494  -0.004372   0.011476  -0.024345
     5  N   -0.028802   0.002239  -0.001742  -0.015570   0.005064   0.000031
     6  C    1.790534  -0.435487   0.115204   0.419799   0.056289   0.001570
     7  C    0.141610  -0.058815   0.004212  -0.022490  -0.002045   0.000385
     8  C   -0.058526   0.113140  -0.224256   0.030980   0.009638  -0.001128
     9  C   -1.948122  -0.124152  -0.136806  -0.000250  -0.015595   0.001281
    10  C    0.878632   0.078270   0.019891  -0.001039  -0.000224   0.000291
    11  C   -2.720121   0.096772  -0.642630  -0.001310  -0.000660  -0.000034
    12  C   -1.702058   0.328609  -0.652397   0.006365  -0.000239   0.000032
    13  C   10.177581  -0.717112   0.738454   0.030899   0.000209   0.000041
    14  C   -0.717112   6.718188  -0.326587  -0.015070  -0.000375   0.000010
    15  C    0.738454  -0.326587   6.726951   0.003010   0.000034   0.000001
    16  H    0.030899  -0.015070   0.003010   0.599361  -0.000198   0.000036
    17  H    0.000209  -0.000375   0.000034  -0.000198   0.472877  -0.002748
    18  H    0.000041   0.000010   0.000001   0.000036  -0.002748   0.344518
    19  H    0.000054  -0.000040   0.000004   0.000021   0.000017  -0.001167
    20  H   -0.013185   0.000540  -0.000525  -0.006814   0.000011  -0.000000
    21  H    0.010648  -0.006423   0.001377   0.006771  -0.000431   0.000012
    22  H   -0.007971   0.007966  -0.000809  -0.004838  -0.000756  -0.000004
    23  H   -0.011919  -0.003906   0.000984  -0.000354  -0.000097  -0.000037
    24  H    0.012504   0.001640   0.000923   0.000023   0.000000   0.000000
    25  H    0.021732  -0.002473  -0.002649  -0.000001   0.000000   0.000000
    26  H   -0.134891   0.426051  -0.038509   0.001077  -0.000000  -0.000000
    27  H   -0.120724   0.453313   0.006771   0.005171   0.000003  -0.000000
    28  H    0.021771   0.368786  -0.002670  -0.000378   0.000000  -0.000000
    29  H   -0.098974  -0.000783   0.406943  -0.000000   0.000000   0.000000
    30  H    0.014954  -0.018179   0.442169  -0.000001   0.000000  -0.000000
    31  H    0.033940   0.006105   0.408225  -0.000000   0.000000  -0.000000
              19         20         21         22         23         24
     1  C    0.049169   0.066531  -0.058315   0.054810   0.009232  -0.002331
     2  C   -0.024381   0.012367  -0.014670  -0.009073   0.000635   0.000993
     3  N   -0.050064   0.000216  -0.000381   0.000372   0.004312  -0.000055
     4  C    0.431886   0.001289  -0.002283   0.000982   0.004153  -0.000173
     5  N   -0.061595   0.000476  -0.002084   0.000928  -0.001277   0.000036
     6  C    0.007697  -0.021360   0.001296  -0.121740  -0.003334  -0.004186
     7  C    0.000330   0.364816   0.452276   0.433424  -0.008052  -0.000291
     8  C    0.000915  -0.048189  -0.014057   0.014228  -0.043065  -0.003783
     9  C   -0.001001   0.015164   0.005811   0.002394   0.452701  -0.037978
    10  C   -0.000139  -0.000911   0.008902   0.000100  -0.093601   0.442867
    11  C   -0.000043   0.000892  -0.005536   0.002003   0.012686  -0.069406
    12  C   -0.000054   0.003371   0.005417  -0.001530   0.011374   0.004732
    13  C    0.000054  -0.013185   0.010648  -0.007971  -0.011919   0.012504
    14  C   -0.000040   0.000540  -0.006423   0.007966  -0.003906   0.001640
    15  C    0.000004  -0.000525   0.001377  -0.000809   0.000984   0.000923
    16  H    0.000021  -0.006814   0.006771  -0.004838  -0.000354   0.000023
    17  H    0.000017   0.000011  -0.000431  -0.000756  -0.000097   0.000000
    18  H   -0.001167  -0.000000   0.000012  -0.000004  -0.000037   0.000000
    19  H    0.490357  -0.000001   0.000001  -0.000001  -0.000005   0.000000
    20  H   -0.000001   0.507664  -0.025230  -0.020837   0.000084  -0.000000
    21  H    0.000001  -0.025230   0.500729  -0.029992   0.000025   0.000019
    22  H   -0.000001  -0.020837  -0.029992   0.520373  -0.000149  -0.000001
    23  H   -0.000005   0.000084   0.000025  -0.000149   0.525331  -0.005527
    24  H    0.000000  -0.000000   0.000019  -0.000001  -0.005527   0.542733
    25  H    0.000000   0.000000  -0.000000   0.000000  -0.000295  -0.006086
    26  H   -0.000000   0.000134   0.000010   0.000018   0.000013  -0.000000
    27  H    0.000000  -0.001351  -0.000034   0.000181  -0.000069  -0.000001
    28  H   -0.000000  -0.000541   0.000042  -0.000082   0.000014  -0.000000
    29  H    0.000000  -0.000000   0.000000  -0.000000  -0.000001   0.000013
    30  H    0.000000   0.000011   0.000000   0.000000  -0.000001   0.000012
    31  H   -0.000000  -0.000001  -0.000000   0.000000  -0.000002  -0.000063
              25         26         27         28         29         30
     1  C   -0.000766   0.014589   0.010192  -0.004298   0.001379  -0.000820
     2  C   -0.000070   0.000382  -0.002678  -0.000407   0.000044  -0.000021
     3  N   -0.000001   0.000005  -0.000050  -0.000000   0.000000  -0.000000
     4  C   -0.000014   0.000122  -0.000423   0.000027  -0.000005   0.000003
     5  N    0.000007   0.000128  -0.000293   0.000011  -0.000001  -0.000005
     6  C    0.002761  -0.011047   0.000554   0.009234  -0.004169  -0.002135
     7  C    0.000006  -0.005605  -0.009456   0.003139  -0.000394   0.000698
     8  C    0.012408   0.031909  -0.013554  -0.006056   0.001349  -0.009243
     9  C    0.000583   0.003802   0.010932   0.000307   0.008008   0.003632
    10  C   -0.021782  -0.001222   0.004227  -0.003669  -0.003493  -0.004022
    11  C    0.382359   0.025844  -0.001865  -0.005637   0.048568  -0.000691
    12  C   -0.055181   0.047197   0.033757  -0.022514  -0.000978  -0.068873
    13  C    0.021732  -0.134891  -0.120724   0.021771  -0.098974   0.014954
    14  C   -0.002473   0.426051   0.453313   0.368786  -0.000783  -0.018179
    15  C   -0.002649  -0.038509   0.006771  -0.002670   0.406943   0.442169
    16  H   -0.000001   0.001077   0.005171  -0.000378  -0.000000  -0.000001
    17  H    0.000000  -0.000000   0.000003   0.000000   0.000000   0.000000
    18  H    0.000000  -0.000000  -0.000000  -0.000000   0.000000  -0.000000
    19  H    0.000000  -0.000000   0.000000  -0.000000   0.000000   0.000000
    20  H    0.000000   0.000134  -0.001351  -0.000541  -0.000000   0.000011
    21  H   -0.000000   0.000010  -0.000034   0.000042   0.000000   0.000000
    22  H    0.000000   0.000018   0.000181  -0.000082  -0.000000   0.000000
    23  H   -0.000295   0.000013  -0.000069   0.000014  -0.000001  -0.000001
    24  H   -0.006086  -0.000000  -0.000001  -0.000000   0.000013   0.000012
    25  H    0.544881  -0.000026   0.000017  -0.000016   0.000157   0.000183
    26  H   -0.000026   0.522484  -0.024503  -0.033907   0.004739  -0.002696
    27  H    0.000017  -0.024503   0.502685  -0.022074  -0.000050   0.000170
    28  H   -0.000016  -0.033907  -0.022074   0.517310  -0.001708   0.004945
    29  H    0.000157   0.004739  -0.000050  -0.001708   0.527390  -0.038421
    30  H    0.000183  -0.002696   0.000170   0.004945  -0.038421   0.532894
    31  H    0.004492   0.000126  -0.000041   0.000024  -0.021067  -0.022111
              31
     1  C   -0.000119
     2  C   -0.000009
     3  N   -0.000000
     4  C    0.000000
     5  N    0.000003
     6  C    0.002007
     7  C   -0.000032
     8  C    0.003749
     9  C   -0.005521
    10  C    0.019380
    11  C   -0.033216
    12  C   -0.068934
    13  C    0.033940
    14  C    0.006105
    15  C    0.408225
    16  H   -0.000000
    17  H    0.000000
    18  H   -0.000000
    19  H   -0.000000
    20  H   -0.000001
    21  H   -0.000000
    22  H    0.000000
    23  H   -0.000002
    24  H   -0.000063
    25  H    0.004492
    26  H    0.000126
    27  H   -0.000041
    28  H    0.000024
    29  H   -0.021067
    30  H   -0.022111
    31  H    0.517399
 Mulliken charges:
               1
     1  C   -0.614785
     2  C   -0.074158
     3  N   -0.313476
     4  C    0.159891
     5  N   -0.462249
     6  C    0.636218
     7  C   -0.820324
     8  C    0.834903
     9  C   -0.543726
    10  C   -0.498026
    11  C   -0.619497
    12  C    0.453590
    13  C    0.819343
    14  C   -0.906305
    15  C   -0.728614
    16  H    0.116858
    17  H    0.166915
    18  H    0.334633
    19  H    0.158038
    20  H    0.165379
    21  H    0.166101
    22  H    0.160005
    23  H    0.150145
    24  H    0.123385
    25  H    0.119772
    26  H    0.173778
    27  H    0.169190
    28  H    0.178349
    29  H    0.171454
    30  H    0.167548
    31  H    0.155665
 Sum of Mulliken charges =  -0.00000
 Mulliken charges with hydrogens summed into heavy atoms:
[...]
 103,0.00000787,-0.00000037,-0.00007585,-0.00004551,0.00006394,0.000005
 89,-0.00004708,-0.00002307,-0.00000102,-0.00002661,0.00011271,-0.00017
 964,0.00013544,-0.00017489,-0.00008290,-0.00005275,0.00003965,-0.00002
 578,-0.00008469,-0.00003529,0.19351439,0.00010704,0.00016949,-0.000104
 92,-0.00000460,0.00001767,0.00003207,-0.00000790,-0.00013347,0.0000489
 1,0.00002514,-0.00006475,0.00000096,-0.00001288,-0.00003328,0.00000788
 ,-0.00013843,-0.00016438,-0.00008610,0.00005481,0.00008705,0.00012177,
 0.00144067,0.00078126,0.00086294,-0.00010047,-0.00075433,0.00032535,-0
 .00010112,0.00016859,-0.00002427,0.00024357,-0.00036333,0.00032065,-0.
 00120085,-0.00098557,-0.00139657,0.01080110,-0.00612525,-0.00539884,0.
 05362430,-0.06418856,-0.05271780,-0.00123773,0.00077082,-0.00009335,0.
 00034075,0.00006955,-0.00002774,-0.00000017,0.00000968,0.00000619,-0.0
 0001549,0.00000160,0.00000869,0.00000230,-0.00000913,0.00000199,-0.000
 10759,-0.00008014,0.00014592,0.00003249,-0.00007049,0.00000876,0.00001
 266,-0.00003388,-0.00003070,0.00015481,-0.00008252,0.00010214,0.000070
 08,0.00002221,-0.00002050,0.00002637,0.00003019,0.00003072,-0.06228994
 ,0.06982273,0.00008466,0.00005652,-0.00001654,0.00001417,0.00000523,0.
 00001885,-0.00001364,-0.00005443,0.00001448,0.00000931,-0.00003045,-0.
 00000040,0.00000066,-0.00002052,0.00001172,-0.00048963,-0.00042398,0.0
 0011390,0.00019377,0.00028567,0.00001664,-0.00138350,0.00057504,-0.001
 40259,0.00052538,0.00056574,-0.00061089,-0.00028034,0.00014274,-0.0000
 2034,0.00075335,0.00043197,-0.00024367,-0.00040446,-0.00114566,-0.0000
 7176,-0.01273818,0.00550278,0.01318980,0.11827721,-0.05090519,-0.15214
 535,-0.00183092,-0.00007681,0.00027377,0.00029629,0.00007450,-0.000015
 65,-0.00000048,0.00000702,0.00000508,-0.00000898,0.00000008,0.00000193
 ,0.00000195,-0.00000412,0.00000210,-0.00010733,-0.00014050,0.00018743,
 0.00003563,-0.00009853,-0.00001407,0.00001300,-0.00007896,0.00006558,-
 0.00011955,0.00006692,-0.00003641,-0.00005916,-0.00004880,0.00007136,0
 .00005771,-0.00005230,0.00003537,-0.12833639,0.05472115,0.16562244,0.0
 0048232,0.00030990,-0.00012477,0.00000496,-0.00004293,0.00008848,-0.00
 000534,-0.00023419,0.00004371,0.00002668,-0.00010568,0.00001953,-0.000
 00437,-0.00007921,0.00004877,-0.00073549,0.00031325,0.00012227,-0.0000
 4437,0.00067984,0.00037633,0.00100614,-0.00125038,-0.00014000,-0.00012
 617,-0.00012631,-0.00010682,-0.00002494,0.00023774,0.00011493,0.000117
 93,-0.00126051,-0.00089480,-0.00370458,0.00319136,-0.00234887,-0.00948
 444,-0.01987328,-0.01435968,-0.08927253,-0.07257039,-0.06671798,-0.000
 25073,0.00061934,0.00052660,0.00100839,0.00124454,-0.00005201,-0.00000
 244,0.00001641,0.00000937,-0.00003316,-0.00000346,0.00001326,0.0000039
 3,-0.00002023,0.00000328,-0.00081302,0.00005944,0.00071854,0.00015720,
 -0.00025388,-0.00006860,-0.00000059,-0.00011566,0.00001817,0.00003456,
 -0.00000273,0.00001555,-0.00001848,0.00006216,0.00002632,-0.00041298,0
 .00010350,-0.00019026,0.01007643,0.01650525,0.01305756,0.09562445,-0.0
 0016256,0.00005413,0.00015630,0.00004804,-0.00003789,-0.00007782,-0.00
 004686,0.00010540,-0.00002297,-0.00001167,0.00003532,-0.00001846,-0.00
 000649,0.00005013,0.00003490,0.00342818,-0.00296321,0.00021611,-0.0000
 1614,-0.00028683,-0.00013821,-0.00081637,-0.00026526,-0.00098749,-0.00
 012295,0.00021843,0.00011162,-0.00009586,-0.00004228,-0.00005240,0.000
 18335,0.00053590,0.00023622,0.00230303,-0.00126884,0.00146914,0.003574
 84,0.01066755,0.00846747,-0.07557749,-0.17486270,-0.11775658,-0.000268
 70,-0.00053517,-0.00022715,0.00085631,-0.00383535,0.00034581,0.0000058
 9,0.00000705,0.00001177,0.00001058,-0.00000188,-0.00001021,-0.00000110
 ,0.00001171,-0.00000004,0.00006283,0.00006342,0.00006706,-0.00013467,0
 .00007010,0.00016691,0.00001297,-0.00011008,0.00001993,-0.00006463,0.0
 0003954,-0.00005489,-0.00002203,-0.00001912,-0.00002803,0.00018488,-0.
 00000280,0.00006333,-0.00307985,-0.00597016,-0.00346555,0.07812664,0.1
 9446423,0.00054725,0.00017992,-0.00014759,0.00001789,-0.00007274,0.000
 07680,-0.00001791,-0.00015167,-0.00000476,0.00003094,-0.00003737,-0.00
 000578,-0.00001821,-0.00000156,0.00003133,0.00024520,-0.00094984,0.000
 45843,0.00026032,-0.00044550,0.00014861,0.00028250,-0.00108021,-0.0002
 0141,-0.00002483,0.00002604,-0.00003234,-0.00005240,0.00008110,0.00004
 026,-0.00025352,-0.00092664,-0.00026158,-0.00274575,0.00167372,-0.0002
 3373,-0.00412921,-0.01067851,-0.01028502,-0.06834951,-0.11550581,-0.14
 965959,0.00007023,0.00045025,-0.00022430,0.00046201,0.00093846,0.00066
 516,0.00001297,0.00000474,0.00000439,-0.00002426,-0.00000817,0.0000035
 0,0.00000218,-0.00000699,0.00000261,0.00047775,-0.00012310,-0.00026082
 ,0.00001818,0.00009029,-0.00009896,-0.00001377,-0.00005584,-0.00002410
 ,0.00001802,0.00002965,-0.00001803,-0.00000990,0.00005425,-0.00001024,
 -0.00019604,0.00013386,-0.00021739,-0.00852983,-0.01350955,-0.01198687
 ,0.07505501,0.12770186,0.15982568,0.00015732,-0.00000456,0.00007500,0.
 00002718,-0.00002968,0.00001627,-0.00001560,0.00003329,-0.00002382,-0.
 00000255,0.00000415,0.00000372,-0.00000042,0.00001987,0.00001859,0.000
 05103,-0.00005190,-0.00049642,-0.00000111,0.00000651,-0.00008184,-0.00
 207495,-0.00010731,-0.00175289,-0.00106612,0.00000511,0.00110614,-0.00
 017822,0.00020920,-0.00023748,-0.00044088,-0.00004561,0.00101977,0.000
 42414,0.00007744,0.00012168,0.00569873,0.02335238,-0.01563554,-0.05909
 817,-0.05444515,0.03527047,0.00027446,0.00038956,-0.00111248,0.0002409
 1,0.00012713,0.00001942,-0.00000009,0.00000021,-0.00000139,-0.00000376
 ,-0.00000407,-0.00000631,-0.00000032,0.00000276,-0.00000091,-0.0000302
 9,0.00001381,0.00008694,0.00001938,-0.00000743,-0.00003288,0.00000131,
 -0.00003312,0.00003454,-0.00021253,0.00008391,-0.00010891,0.00007708,0
 .00004448,-0.00014224,0.00005259,-0.00006436,-0.00002685,-0.00657446,-
 0.01839777,0.01191424,-0.00408333,-0.00828190,0.00708220,0.06704841,0.
 00030508,0.00015482,-0.00019976,-0.00002316,-0.00002597,0.00004803,0.0
 0001608,-0.00015459,0.00002944,0.00002636,-0.00004967,-0.00000025,-0.0
 0001306,-0.00001207,-0.00000359,0.00004377,-0.00031731,0.00055511,-0.0
 0015164,-0.00015177,0.00021427,0.00007415,0.00066704,0.00114208,0.0008
 3696,-0.00029632,-0.00009514,-0.00016939,-0.00012605,-0.00008394,0.000
 28118,-0.00006196,0.00009530,-0.00034245,-0.00144385,-0.00197607,0.001
 56877,-0.00982050,0.00626915,-0.05667996,-0.20922842,0.11465925,-0.001
 04135,0.00118320,-0.00097016,0.00023637,0.00055691,0.00005785,0.000004
 78,-0.00000061,-0.00000065,-0.00001621,-0.00000022,0.00001227,0.000002
 15,-0.00001002,0.00000209,0.00004413,-0.00004617,-0.00011076,0.0000403
 7,0.00007032,-0.00005804,-0.00000512,0.00001599,-0.00006798,0.00019014
 ,-0.00003372,0.00004655,0.00001169,-0.00001602,0.00005474,0.00005127,0
 .00002717,0.00005346,0.00225894,0.00729215,-0.00554591,-0.00550336,-0.
 01656473,0.01230753,0.05799105,0.22849760,0.00032098,0.00002430,-0.000
 00061,0.00001652,-0.00005198,0.00003497,-0.00001329,-0.00000944,-0.000
 01715,0.00000804,-0.00001778,0.00000447,-0.00000477,0.00002848,0.00001
 357,0.00020795,-0.00054449,0.00005374,-0.00004996,0.00013654,0.0001007
 9,-0.00081485,-0.00096775,-0.00154154,-0.00046551,-0.00010941,0.000476
 95,-0.00019738,0.00016747,-0.00029229,-0.00021563,-0.00000120,0.000493
 69,-0.00103190,0.00049461,0.00086536,0.00234019,0.01180317,-0.00869725
 ,0.03603743,0.11517825,-0.12262547,0.00034606,0.00071470,-0.00040200,0
 .00025827,0.00038985,0.00002584,0.00000249,-0.00000202,-0.00000158,-0.
 00000872,-0.00000717,-0.00000206,-0.00000023,-0.00000097,-0.00000069,0
 .00000821,-0.00001512,-0.00006885,0.00001511,-0.00000791,-0.00004459,-
 0.00002064,0.00004216,0.00003762,-0.00013716,0.00002328,-0.00002798,0.
 00003316,0.00000860,-0.00006682,0.00000190,-0.00003407,-0.00005751,0.0
 0589697,0.01688486,-0.01214850,-0.00510108,-0.01606973,0.01199814,-0.0
 3724520,-0.12681483,0.13211918,0.00002016,-0.00003309,0.00004774,0.000
 01997,-0.00001087,0.00000340,-0.00000809,0.00004122,-0.00001667,-0.000
 00576,0.00001379,-0.00000169,0.00000406,0.00001394,0.00001325,-0.00008
 190,-0.00000607,-0.00001562,0.00004610,0.00004524,-0.00000786,-0.00009
 216,0.00028173,-0.00002871,-0.00011307,-0.00005629,-0.00000378,0.00008
 618,0.00077613,-0.00047947,0.00037201,0.00116983,0.00149085,-0.0099813
 2,0.00358273,0.00235207,-0.00094994,-0.00050170,-0.00229149,0.00101068
 ,-0.00133534,-0.00035089,-0.27599057,-0.00965704,0.08363773,0.00002555
 ,0.00002009,0.00002184,0.00000005,-0.00000159,-0.00000150,0.00000082,-
 0.00000291,-0.00000502,-0.00000058,0.00000365,-0.00000057,-0.00000034,
 -0.00001772,0.00000003,-0.00000328,-0.00000982,-0.00000836,0.00000049,
 0.00000310,0.00003606,-0.00002959,0.00001629,0.00006002,-0.00005951,0.
 00018141,-0.00002816,-0.00006109,-0.00015554,0.00043456,0.00005206,0.0
 0007865,0.00022933,0.00026025,-0.00011742,-0.00009235,-0.00018744,0.00
 010593,0.00029691,0.30113851,-0.00001000,0.00004703,-0.00002025,-0.000
 02566,0.00002680,-0.00001197,0.00001454,-0.00005147,0.00001634,-0.0000
 0108,-0.00000002,0.00000247,-0.00001207,-0.00002864,-0.00002361,0.0000
 2548,0.00010792,0.00001032,-0.00002574,-0.00003382,-0.00001704,-0.0004
 4591,-0.00020802,0.00109999,0.00035266,-0.00025070,-0.00010912,-0.0003
 3280,-0.00081868,0.00125162,0.00001840,-0.00275381,-0.00123532,0.03052
 491,0.00018175,-0.01017214,0.00003084,0.00038136,0.00054057,0.00092433
 ,0.00000151,-0.00102738,-0.00736315,-0.04379686,0.00025603,-0.00003205
 ,-0.00001059,-0.00002392,0.00000006,0.00000256,0.00000169,-0.00000116,
 0.00000444,0.00000516,-0.00000075,-0.00000403,-0.00000005,0.00000006,-
 0.00000420,0.00000158,-0.00000250,-0.00000276,0.00000684,0.00000670,-0
 .00000853,-0.00003019,0.00005617,0.00002585,-0.00009197,0.00014516,-0.
 00025611,0.00000590,0.00038531,0.00019811,-0.00029382,-0.00078519,-0.0
 0018434,-0.00044279,-0.00005294,-0.00004605,0.00018534,-0.00046077,-0.
 00001993,0.00003906,0.00639854,0.04984470,-0.00001603,-0.00000045,0.00
 000556,-0.00000774,0.00000963,-0.00000738,0.00000649,-0.00000511,0.000
 00053,-0.00000424,0.00000749,0.00000189,-0.00000686,-0.00000759,-0.000
 01293,0.00003525,0.00004362,0.00000502,0.00000022,-0.00001054,-0.00001
 280,-0.00019080,0.00014636,0.00016719,0.00023559,-0.00015613,-0.000021
 60,0.00004117,0.00012098,-0.00022212,-0.00036318,0.00027304,-0.0002641
 0,0.00269679,0.00109370,-0.00183243,-0.00022896,-0.00105640,0.00034084
 ,0.00099563,-0.00020244,-0.00006933,0.08372666,-0.00009472,-0.07299626
 ,-0.00003031,-0.00001789,-0.00000313,0.00000051,0.00000028,0.00000052,
 0.00000096,0.00000156,0.00000102,-0.00000002,-0.00000014,0.00000009,0.
 00000949,0.00000060,-0.00001071,-0.00000792,0.00000519,0.00000239,0.00
 000077,-0.00000038,-0.00000305,-0.00004371,-0.00000589,0.00005451,-0.0
 0001886,-0.00002588,0.00002522,-0.00000602,-0.00002114,0.00030510,-0.0
 0091252,-0.00059381,-0.00044601,-0.00021196,0.00018859,0.00020702,0.00
 020189,0.00029886,-0.00012446,-0.09152848,-0.00135197,0.07662028,0.000
 00079,-0.00002975,0.00001653,0.00000843,-0.00000926,0.00000165,-0.0000
 0500,0.00002953,-0.00001089,-0.00000271,0.00000766,-0.00000021,0.00000
 139,0.00001009,0.00000517,-0.00000784,-0.00001897,-0.00000733,0.000022
 70,0.00002100,-0.00000840,-0.00041251,0.00012155,0.00016108,0.00004798
 ,-0.00004071,-0.00000600,-0.00094069,0.00000040,0.00058283,-0.00012068
 ,0.00178248,0.00063473,-0.00226868,0.00849143,-0.01062120,-0.00011182,
 -0.00104638,-0.00099033,0.00065495,-0.00059145,0.00035232,-0.04105430,
 -0.00151693,-0.00179832,0.00000064,-0.00000567,0.00001215,0.00000035,-
 0.00000063,-0.00000040,0.00000253,-0.00000155,-0.00000230,-0.00000009,
 0.00000239,-0.00000015,0.00000842,-0.00000579,-0.00000918,-0.00000600,
 0.00000320,-0.00000334,-0.00000040,0.00000219,0.00002099,0.00007447,0.
 00006913,-0.00007794,-0.00007767,0.00014999,-0.00000937,0.00045103,0.0
 0022204,-0.00026055,-0.00013974,0.00002310,0.00043785,-0.00002807,0.00
 016247,0.00000995,0.00002141,-0.00015030,-0.00058111,-0.00037917,-0.01
 606993,0.02632958,0.04437098,-0.00004497,0.00005880,-0.00000440,-0.000
 02657,0.00002122,-0.00000831,0.00001563,-0.00004636,0.00001382,-0.0000
 0400,-0.00000896,0.00000602,-0.00001241,-0.00002779,-0.00003020,0.0000
 8203,0.00011261,0.00005250,-0.00002900,-0.00003333,0.00000020,0.000720
 05,0.00048617,-0.00048183,0.00021327,-0.00040453,0.00024631,0.00116487
 ,-0.00005608,-0.00076355,-0.00059855,-0.00259445,-0.00137923,0.0013691
 0,-0.01695294,0.02503502,0.00134029,0.00053418,0.00010502,-0.00058735,
 -0.00023214,0.00091657,-0.00104121,-0.11805555,0.11766928,-0.00006877,
 -0.00003554,-0.00003499,0.00000133,0.00000156,0.00000277,-0.00000178,0
 .00000485,0.00000484,0.00000140,-0.00000420,0.00000079,0.00000173,0.00
 000259,0.00000064,-0.00000658,0.00000055,0.00000914,-0.00000227,-0.000
 00304,-0.00003878,-0.00006390,-0.00004423,0.00005132,0.00018213,-0.000
 25160,-0.00004404,-0.00018440,-0.00009847,0.00038277,-0.00029975,-0.00
 001082,-0.00009224,0.00011392,0.00032109,-0.00016714,-0.00051345,-0.00
 023508,-0.00109700,-0.00043141,-0.00112605,0.00116198,-0.00232814,0.13
 009340,0.00002139,-0.00000112,0.00002713,0.00000357,-0.00001151,0.0000
 0508,-0.00000637,0.00002292,-0.00000994,-0.00000305,-0.00000246,0.0000
 0183,0.00000231,0.00001066,0.00000305,-0.00002048,0.00002341,0.0000063
 6,0.00002462,0.00002744,0.00000271,0.00028464,0.00046569,-0.00023851,0
 .00001637,-0.00018374,-0.00003123,0.00008478,0.00034343,0.00003016,0.0
 0087212,-0.00012733,0.00002384,-0.00166712,-0.00188067,0.00757252,-0.0
 0161897,-0.00065480,-0.00064849,-0.00001331,-0.00176473,0.00077183,-0.
 00048893,0.11583885,-0.23394263,0.00001616,0.00000885,0.00000432,0.000
 00080,0.00000001,0.00000056,0.00000043,-0.00000163,-0.00000216,0.00000
 065,0.00000105,-0.00000014,-0.00000261,-0.00000050,-0.00000023,-0.0000
 0591,0.00000103,-0.00000664,-0.00000440,0.00000216,0.00001464,-0.00000
 703,0.00001966,0.00001574,-0.00002423,-0.00000064,0.00003481,0.0002318
 7,0.00001447,0.00008956,0.00011791,0.00028554,-0.00041941,0.00015147,-
 0.00018278,0.00007255,-0.00011549,0.00017696,-0.00049816,-0.00012987,0
 .00522810,-0.00993420,0.00085628,-0.12818846,0.25358407,0.00002164,0.0
 0002597,0.00001736,-0.00000357,0.00000386,0.00000591,0.00000163,-0.000
 01135,-0.00000296,-0.00000260,0.00000021,0.00000185,0.00000135,-0.0000
 0970,-0.00000037,-0.00008384,0.00008638,0.00005298,-0.00000275,0.00000
 689,0.00000805,0.00038982,0.00034204,0.00022547,0.00003264,0.00001533,
 0.00000189,0.00013668,-0.00011267,0.00021731,0.00046244,0.00140819,0.0
 0106652,0.00599340,0.00643733,0.00913410,-0.00063940,0.00243158,-0.000
 36842,-0.00057603,-0.00033137,-0.00013363,-0.13283061,-0.07463291,-0.1
 0402457,0.00000461,0.00000977,-0.00001194,0.00000072,0.00000111,0.0000
 0115,-0.00000179,0.00000062,-0.00000005,0.00000008,-0.00000126,0.00000
 008,-0.00000911,-0.00000399,0.00001517,0.00000318,-0.00000548,0.000000
 98,-0.00000118,-0.00000469,-0.00000467,0.00000686,-0.00001468,-0.00002
 161,0.00001620,-0.00007785,0.00001150,-0.00016465,0.00025223,-0.000213
 29,0.00045866,0.00007185,-0.00012950,0.00024179,-0.00013329,-0.0001350
 9,-0.00012372,0.00000681,0.00009726,-0.01509306,-0.01326146,-0.0207033
 8,-0.00011072,0.00103874,0.00142238,0.14187133,-0.00005545,0.00002585,
 -0.00018543,-0.00002267,0.00000561,0.00000486,0.00001567,-0.00008363,0
 .00004296,0.00001708,-0.00003979,-0.00000043,-0.00000765,-0.00001411,-
 0.00000424,0.00026429,-0.00037119,0.00014949,-0.00003380,-0.00003314,0
 .00003147,-0.00119130,-0.00016560,-0.00125497,0.00021862,0.00009549,0.
 00019246,0.00003848,-0.00011376,0.00007356,-0.00202892,0.00129293,-0.0
 0100410,-0.01799324,-0.01544131,-0.02073266,0.00343074,-0.00468372,-0.
 00004897,0.00055214,-0.00013312,0.00061386,-0.07128894,-0.10754128,-0.
 08542819,-0.00001231,0.00002362,0.00001284,-0.00000298,0.00000094,-0.0
 0000144,-0.00000278,0.00000366,0.00001088,0.00000147,-0.00000613,0.000
 00141,-0.00000245,0.00000653,0.00001322,0.00001044,-0.00000347,-0.0000
 0481,0.00000624,-0.00000912,-0.00004103,0.00007846,0.00000983,0.000053
 39,-0.00001753,0.00003324,0.00002738,0.00122543,-0.00013819,0.00082950
 ,0.00001977,0.00001141,0.00019139,-0.00008815,0.00016837,-0.00013639,0
 .00008621,0.00014979,-0.00018444,-0.00039545,-0.00121740,0.00019860,0.
 01071681,0.00858414,0.01053014,0.07646178,0.11958354,0.00001092,0.0000
 4513,-0.00006845,-0.00001024,0.00000437,0.00000609,0.00001105,-0.00004
 936,0.00001406,0.00000276,-0.00001071,0.00000113,-0.00000433,-0.000019
 24,-0.00000325,0.00012344,-0.00005949,-0.00002795,-0.00003403,-0.00004
 105,-0.00000251,-0.00054748,0.00002852,-0.00005697,0.00009748,0.000042
 08,0.00013310,0.00030173,-0.00004070,-0.00001836,-0.00055806,0.0017590
 6,0.00033564,-0.00233754,-0.00141390,-0.00424298,0.00014232,-0.0008636
 5,0.00095468,0.00022994,-0.00010195,-0.00034012,-0.10244581,-0.0880410
 3,-0.16838425,0.00003028,0.00001489,0.00001051,-0.00000079,0.00000150,
 -0.00000003,-0.00000278,0.00000206,0.00000506,0.00000041,-0.00000376,0
 .00000060,-0.00000886,0.00000405,0.00001389,0.00000908,-0.00000349,-0.
 00000153,0.00000763,-0.00000587,-0.00003318,0.00001680,-0.00002226,0.0
 0004109,0.00004179,-0.00002448,-0.00002475,0.00022112,0.00005075,0.000
 44240,-0.00005643,0.00008768,-0.00005197,-0.00009231,-0.00016471,0.000
 13805,0.00004977,-0.00009587,0.00039319,0.00636672,0.00620052,0.008223
 33,-0.01503408,-0.01332881,-0.01652902,0.11346951,0.09604972,0.1790725
 0\\0.00003094,0.00001352,-0.00000307,-0.00001212,0.00003028,-0.0000227
 3,-0.00000255,-0.00003689,0.00000530,-0.00002502,0.00007022,0.00001205
 ,-0.00000367,-0.00005017,0.00001237,-0.00001406,0.00001033,0.00002176,
 0.00000843,-0.00000525,-0.00002205,-0.00001489,-0.00000664,-0.00001760
 ,0.00001170,-0.00001368,0.00001194,0.00001034,-0.00001704,0.00000186,0
 .00000287,0.00000400,0.00000422,0.00000641,0.00001974,0.00000718,-0.00
 001076,0.00000461,-0.00001563,0.00000755,-0.00000411,0.00000023,0.0000
 0152,-0.00001374,0.00000090,-0.00000338,-0.00000224,0.00000140,0.00001
 149,-0.00001416,-0.00000712,0.00000837,0.00000842,-0.00000552,-0.00000
 465,-0.00001488,-0.00000260,0.00000432,-0.00000493,0.00000421,-0.00000
 228,0.00000280,0.,0.00000343,0.00000420,0.00000552,-0.00000114,-0.0000
 0688,-0.00000359,0.00000186,-0.00000290,0.00000191,-0.00000104,0.00000
 097,0.00000214,-0.00000611,0.00000129,-0.00000182,0.00000136,0.0000107
 5,0.00000057,-0.00000486,0.00000041,0.00000798,0.00000102,0.00000477,-
 0.00000309,0.00000104,0.00000513,0.00000474,-0.00000610,0.00000210,-0.
 00000143\\\@


 NOBODY LOSES ALL THE TIME
 I HAD AN UNCLE NAMED
 SOL WHO WAS A BORN FAILURE AND
 NEARLY EVERYBODY SAID HE SHOULD HAVE GONE
 INTO VAUDEVILLE PERHAPS BECAUSE MY UNCLE SOL COULD
 SING MCCANN HE WAS A DIVER ON XMAS EVE LIKE HELL ITSELF WHICH
 MAY OR MAY NOT ACCOUNT FOR THE FACT THAT MY UNCLE
 SOL INDULGED IN THAT POSSIBLY MOST INEXCUSABLE
 OF ALL TO USE A HIGHFALOOTIN PHRASE
 LUXURIES THAT IS OR TO
 WIT FARMING AND BE
 IT NEEDLESSLY
 ADDED
 MY UNCLE SOL'S FARM     
 FAILED BECAUSE THE CHICKENS
 ATE THE VEGETABLES SO
 MY UNCLE SOL HAD A
 CHICKEN FARM TILL THE
 SKUNKS ATE THE CHICKENS WHEN 
 MY UNCLE SOL
 HAD A SKUNK FARM BUT
 THE SKUNKS CAUGHT COLD AND
 DIED AND SO
 MY UNCLE SOL IMITATED THE
 SKUNKS IN A SUBTLE MANNER
 OR BY DROWNING HIMSELF IN THE WATERTANK
 BUT SOMEBODY WHO'D GIVEN MY UNCLE SOL A VICTOR     
 VICTROLA AND RECORDS WHILE HE LIVED PRESENTED TO
 HIM UPON THE AUSPICIOUS OCCASION OF HIS DECEASE A
 SCRUMPTIOUS NOT TO MENTION SPLENDIFEROUS FUNERAL WITH
 TALL BOYS IN BLACK GLOVES AND FLOWERS AND EVERYTHING AND
 I REMEMBER WE ALL CRIED LIKE THE MISSOURI
 WHEN MY UNCLE SOL'S COFFIN LURCHED BECAUSE     
 SOMEBODY PRESSED A BUTTON
 (AND DOWN WENT
 MY UNCLE
 SOL
 AND STARTED A WORM FARM)
           E. E. CUMMINGS
 Job cpu time:       0 days 10 hours  9 minutes 49.9 seconds.
 Elapsed time:       0 days  0 hours 25 minutes 25.5 seconds.
 File lengths (MBytes):  RWF=    747 Int=      0 D2E=      0 Chk=     31 Scr=      1
 Normal termination of Gaussian 16 at Sun Oct  9 16:55:26 2022.
